 Initial command:
 /apps/gaussian/g09_c01/g09/l1.exe /tmp/pbs.4068140.cx1b/Gau-3253.inp -scrdir=/tmp/pbs.4068140.cx1b/
 Entering Link 1 = /apps/gaussian/g09_c01/g09/l1.exe PID=     16100.
  
 Copyright (c) 1988,1990,1992,1993,1995,1998,2003,2009,2011,
            Gaussian, Inc.  All Rights Reserved.
  
 This is part of the Gaussian(R) 09 program.  It is based on
 the Gaussian(R) 03 system (copyright 2003, Gaussian, Inc.),
 the Gaussian(R) 98 system (copyright 1998, Gaussian, Inc.),
 the Gaussian(R) 94 system (copyright 1995, Gaussian, Inc.),
 the Gaussian 92(TM) system (copyright 1992, Gaussian, Inc.),
 the Gaussian 90(TM) system (copyright 1990, Gaussian, Inc.),
 the Gaussian 88(TM) system (copyright 1988, Gaussian, Inc.),
 the Gaussian 86(TM) system (copyright 1986, Carnegie Mellon
 University), and the Gaussian 82(TM) system (copyright 1983,
 Carnegie Mellon University). Gaussian is a federally registered
 trademark of Gaussian, Inc.
  
 This software contains proprietary and confidential information,
 including trade secrets, belonging to Gaussian, Inc.
  
 This software is provided under written license and may be
 used, copied, transmitted, or stored only in accord with that
 written license.
  
 The following legend is applicable only to US Government
 contracts under FAR:
  
                    RESTRICTED RIGHTS LEGEND
  
 Use, reproduction and disclosure by the US Government is
 subject to restrictions as set forth in subparagraphs (a)
 and (c) of the Commercial Computer Software - Restricted
 Rights clause in FAR 52.227-19.
  
 Gaussian, Inc.
 340 Quinnipiac St., Bldg. 40, Wallingford CT 06492
  
  
 ---------------------------------------------------------------
 Warning -- This program may not be used in any manner that
 competes with the business of Gaussian, Inc. or will provide
 assistance to any competitor of Gaussian, Inc.  The licensee
 of this program is prohibited from giving any competitor of
 Gaussian, Inc. access to this program.  By using this program,
 the user acknowledges that Gaussian, Inc. is engaged in the
 business of creating and licensing software in the field of
 computational chemistry and represents and warrants to the
 licensee that it is not a competitor of Gaussian, Inc. and that
 it will not use this program in any manner prohibited above.
 ---------------------------------------------------------------
  

 Cite this work as:
 Gaussian 09, Revision C.01,
 M. J. Frisch, G. W. Trucks, H. B. Schlegel, G. E. Scuseria, 
 M. A. Robb, J. R. Cheeseman, G. Scalmani, V. Barone, B. Mennucci, 
 G. A. Petersson, H. Nakatsuji, M. Caricato, X. Li, H. P. Hratchian, 
 A. F. Izmaylov, J. Bloino, G. Zheng, J. L. Sonnenberg, M. Hada, 
 M. Ehara, K. Toyota, R. Fukuda, J. Hasegawa, M. Ishida, T. Nakajima, 
 Y. Honda, O. Kitao, H. Nakai, T. Vreven, J. A. Montgomery, Jr., 
 J. E. Peralta, F. Ogliaro, M. Bearpark, J. J. Heyd, E. Brothers, 
 K. N. Kudin, V. N. Staroverov, T. Keith, R. Kobayashi, J. Normand, 
 K. Raghavachari, A. Rendell, J. C. Burant, S. S. Iyengar, J. Tomasi, 
 M. Cossi, N. Rega, J. M. Millam, M. Klene, J. E. Knox, J. B. Cross, 
 V. Bakken, C. Adamo, J. Jaramillo, R. Gomperts, R. E. Stratmann, 
 O. Yazyev, A. J. Austin, R. Cammi, C. Pomelli, J. W. Ochterski, 
 R. L. Martin, K. Morokuma, V. G. Zakrzewski, G. A. Voth, 
 P. Salvador, J. J. Dannenberg, S. Dapprich, A. D. Daniels, 
 O. Farkas, J. B. Foresman, J. V. Ortiz, J. Cioslowski, 
 and D. J. Fox, Gaussian, Inc., Wallingford CT, 2010.
 
 ******************************************
 Gaussian 09:  EM64L-G09RevC.01 23-Sep-2011
                18-Mar-2013 
 ******************************************
 %oldchk=c60_neutral_B3LYP_631gSTAR_opt_polar.chk
 %chk=c60_neutral_B3LYP_631gSTAR_TDmaster.chk
 %mem=11000MB
 %nprocshared=8
 Will use up to    8 processors via shared memory.
 Copying data from "c60_neutral_B3LYP_631gSTAR_opt_polar.chk" to current chk file "c60_neutral_B3LYP_631gSTAR_TDmaster.ch
 k".
 ----------------------------------------------------------------------
 #p Geom=AllCheck nosymm B3LYP/6-31g* Guess=Read td(singlets,nstates=12
 )
 ----------------------------------------------------------------------
 1/29=7,38=1/1;
 2/12=2,15=1,40=1/2;
 3/5=1,6=6,7=1,11=2,14=-4,16=1,25=1,30=1,74=-5,116=-2/1,2,8,3;
 4/5=1/1;
 5/5=2,38=6/2;
 8/6=1,10=2,108=12/1;
 9/41=12,42=1,48=1/14;
 6/7=2,8=2,9=2,10=2/1;
 99/5=1,9=1/99;
 Leave Link    1 at Mon Mar 18 18:56:46 2013, MaxMem= 1441792000 cpu:       0.8
 (Enter /apps/gaussian/g09_c01/g09/l101.exe)
 Structure from the checkpoint file:  c60_neutral_B3LYP_631gSTAR_TDmaster.chk
 -----------
 C60 neutral
 -----------
 Charge =  0 Multiplicity = 1
 Redundant internal coordinates found in file.
 C,0,-1.18308379,-0.3754869462,3.3289045238
 C,0,-0.7356765019,1.0072723531,3.3281078939
 C,0,-1.4348917542,1.9666365872,2.5944327417
 C,0,-2.6101092263,1.5825608491,1.8303062153
 C,0,-3.0396718105,0.2549395805,1.8308736616
 C,0,-2.3112318023,-0.7438838343,2.5948189473
 C,0,-0.0062536773,-1.228402919,3.3287303264
 C,0,1.1685764713,-0.3727900503,3.328439027
 C,0,0.7177382158,1.0087862894,3.3273034159
 C,0,1.4139980636,1.9698505091,2.5934661187
 C,0,-0.7095661476,2.9675207867,1.8298110087
 C,0,-2.6110390552,2.3460239194,0.5936797878
 C,0,-3.0426487018,1.7519388755,-0.5930333008
 C,0,-3.4899201126,0.3690536737,-0.5924477346
 C,0,-3.488569436,-0.3642924222,0.5949369514
 C,0,-3.0371751657,-1.7455458744,0.5953603522
 C,0,-2.3103717158,-1.9807263741,1.8318520977
 C,0,-1.1804236028,-2.7995452463,1.8318988464
 C,0,-0.0050158658,-2.4157123943,2.5955731288
 C,0,2.2981108598,-0.7385743062,2.5948904763
 C,0,2.2994063767,-1.9750182623,1.8310373596
 C,0,1.1712981759,-2.7965876351,1.8314963759
 C,0,0.7225258738,-3.4157780058,0.5954309408
 C,0,-0.7308380499,-3.4173254917,0.5954595023
 C,0,-1.4288025626,-3.1914995238,-0.5914499771
 C,0,-2.6058416715,-2.3389226849,-0.5915942607
 C,0,-2.6075443473,-1.5756063526,-1.8283553259
 C,0,-3.0403405047,-0.2488798349,-1.8286932757
 C,0,-1.4366033645,3.2018371714,0.5931951538
 C,0,-0.0108721176,1.242029379,-3.3273937322
 C,0,-0.0121652917,2.4292735376,-2.5942716492
 C,0,1.1634039639,2.8132406077,-1.8306313309
 C,0,2.293223924,1.9943050548,-1.8304245183
 C,0,2.2943992423,0.7575971473,-2.5939120439
 C,0,0.7186487586,-0.9936298968,-3.3268802139
 C,0,-0.7347903264,-0.995228655,-3.3260949521
 C,0,-1.1856906791,0.3864414632,-3.3271550858
 C,0,-2.3151518866,0.7522086854,-2.5935524476
 C,0,-2.3165726739,1.9886448175,-1.8297049515
 C,0,-1.188353026,2.8101973758,-1.8301123994
 C,0,0.7138350434,3.430892081,-0.5942329794
 C,0,1.4118254014,3.2051216079,0.5927463747
 C,0,2.5886313318,2.3525533037,0.5928224636
 C,0,3.0199967699,1.7593039375,-0.5941082995
 C,0,3.4713880384,0.3778343924,-0.5936409185
 C,0,3.0227373496,-0.2412856669,-1.8297035998
 C,0,2.5930747261,-1.5689239682,-1.828962256
 C,0,1.4178166793,-1.9529660378,-2.5931399576
 C,0,-1.4310286,-1.9560992303,-2.5920973528
 C,0,-0.7029784268,-2.955444636,-1.8282282385
 C,0,0.6925465729,-2.953836718,-1.8284376835
 C,0,1.4195540236,-3.1883021868,-0.5919217538
 C,0,2.5940565119,-2.3323711488,-0.5924189704
 C,0,3.0254433114,-1.7382604532,0.594279935
 C,0,3.4727783707,-0.3554111138,0.5937293467
 C,0,3.0232049373,0.2625457224,1.8300517894
 C,0,2.5904015797,1.5892247556,1.8297567745
 C,0,-0.7395661302,3.429394636,-0.5941952278
 C,0,0.6859394246,2.9691550158,1.8296095822
 C,0,1.1660362066,0.3890732146,-3.3274343219
 Recover connectivity data from disk.
 NAtoms=     60 NQM=        0 NQMF=       0 NMMI=     60 NMMIF=      0
                NMic=       0 NMicF=      0.
                    Isotopes and Nuclear Properties:
 (Nuclear quadrupole moments (NQMom) in fm**2, nuclear magnetic moments (NMagM)
  in nuclear magnetons)

  Atom         1           2           3           4           5           6           7           8           9          10
 IAtWgt=          12          12          12          12          12          12          12          12          12          12
 AtmWgt=  12.0000000  12.0000000  12.0000000  12.0000000  12.0000000  12.0000000  12.0000000  12.0000000  12.0000000  12.0000000
 NucSpn=           0           0           0           0           0           0           0           0           0           0
 AtZEff=  -3.6000000  -3.6000000  -3.6000000  -3.6000000  -3.6000000  -3.6000000  -3.6000000  -3.6000000  -3.6000000  -3.6000000
 NQMom=    0.0000000   0.0000000   0.0000000   0.0000000   0.0000000   0.0000000   0.0000000   0.0000000   0.0000000   0.0000000
 NMagM=    0.0000000   0.0000000   0.0000000   0.0000000   0.0000000   0.0000000   0.0000000   0.0000000   0.0000000   0.0000000

  Atom        11          12          13          14          15          16          17          18          19          20
 IAtWgt=          12          12          12          12          12          12          12          12          12          12
 AtmWgt=  12.0000000  12.0000000  12.0000000  12.0000000  12.0000000  12.0000000  12.0000000  12.0000000  12.0000000  12.0000000
 NucSpn=           0           0           0           0           0           0           0           0           0           0
 AtZEff=  -3.6000000  -3.6000000  -3.6000000  -3.6000000  -3.6000000  -3.6000000  -3.6000000  -3.6000000  -3.6000000  -3.6000000
 NQMom=    0.0000000   0.0000000   0.0000000   0.0000000   0.0000000   0.0000000   0.0000000   0.0000000   0.0000000   0.0000000
 NMagM=    0.0000000   0.0000000   0.0000000   0.0000000   0.0000000   0.0000000   0.0000000   0.0000000   0.0000000   0.0000000

  Atom        21          22          23          24          25          26          27          28          29          30
 IAtWgt=          12          12          12          12          12          12          12          12          12          12
 AtmWgt=  12.0000000  12.0000000  12.0000000  12.0000000  12.0000000  12.0000000  12.0000000  12.0000000  12.0000000  12.0000000
 NucSpn=           0           0           0           0           0           0           0           0           0           0
 AtZEff=  -3.6000000  -3.6000000  -3.6000000  -3.6000000  -3.6000000  -3.6000000  -3.6000000  -3.6000000  -3.6000000  -3.6000000
 NQMom=    0.0000000   0.0000000   0.0000000   0.0000000   0.0000000   0.0000000   0.0000000   0.0000000   0.0000000   0.0000000
 NMagM=    0.0000000   0.0000000   0.0000000   0.0000000   0.0000000   0.0000000   0.0000000   0.0000000   0.0000000   0.0000000

  Atom        31          32          33          34          35          36          37          38          39          40
 IAtWgt=          12          12          12          12          12          12          12          12          12          12
 AtmWgt=  12.0000000  12.0000000  12.0000000  12.0000000  12.0000000  12.0000000  12.0000000  12.0000000  12.0000000  12.0000000
 NucSpn=           0           0           0           0           0           0           0           0           0           0
 AtZEff=  -3.6000000  -3.6000000  -3.6000000  -3.6000000  -3.6000000  -3.6000000  -3.6000000  -3.6000000  -3.6000000  -3.6000000
 NQMom=    0.0000000   0.0000000   0.0000000   0.0000000   0.0000000   0.0000000   0.0000000   0.0000000   0.0000000   0.0000000
 NMagM=    0.0000000   0.0000000   0.0000000   0.0000000   0.0000000   0.0000000   0.0000000   0.0000000   0.0000000   0.0000000

  Atom        41          42          43          44          45          46          47          48          49          50
 IAtWgt=          12          12          12          12          12          12          12          12          12          12
 AtmWgt=  12.0000000  12.0000000  12.0000000  12.0000000  12.0000000  12.0000000  12.0000000  12.0000000  12.0000000  12.0000000
 NucSpn=           0           0           0           0           0           0           0           0           0           0
 AtZEff=  -3.6000000  -3.6000000  -3.6000000  -3.6000000  -3.6000000  -3.6000000  -3.6000000  -3.6000000  -3.6000000  -3.6000000
 NQMom=    0.0000000   0.0000000   0.0000000   0.0000000   0.0000000   0.0000000   0.0000000   0.0000000   0.0000000   0.0000000
 NMagM=    0.0000000   0.0000000   0.0000000   0.0000000   0.0000000   0.0000000   0.0000000   0.0000000   0.0000000   0.0000000

  Atom        51          52          53          54          55          56          57          58          59          60
 IAtWgt=          12          12          12          12          12          12          12          12          12          12
 AtmWgt=  12.0000000  12.0000000  12.0000000  12.0000000  12.0000000  12.0000000  12.0000000  12.0000000  12.0000000  12.0000000
 NucSpn=           0           0           0           0           0           0           0           0           0           0
 AtZEff=  -3.6000000  -3.6000000  -3.6000000  -3.6000000  -3.6000000  -3.6000000  -3.6000000  -3.6000000  -3.6000000  -3.6000000
 NQMom=    0.0000000   0.0000000   0.0000000   0.0000000   0.0000000   0.0000000   0.0000000   0.0000000   0.0000000   0.0000000
 NMagM=    0.0000000   0.0000000   0.0000000   0.0000000   0.0000000   0.0000000   0.0000000   0.0000000   0.0000000   0.0000000
 Leave Link  101 at Mon Mar 18 18:56:46 2013, MaxMem= 1441792000 cpu:       2.0
 (Enter /apps/gaussian/g09_c01/g09/l202.exe)
 Symmetry turned off by external request.
 Stoichiometry    C60
 Framework group  C1[X(C60)]
 Deg. of freedom   174
 Full point group                 C1      NOp   1
                          Input orientation:                          
 ---------------------------------------------------------------------
 Center     Atomic      Atomic             Coordinates (Angstroms)
 Number     Number       Type             X           Y           Z
 ---------------------------------------------------------------------
      1          6           0       -1.183084   -0.375487    3.328905
      2          6           0       -0.735677    1.007272    3.328108
      3          6           0       -1.434892    1.966637    2.594433
      4          6           0       -2.610109    1.582561    1.830306
      5          6           0       -3.039672    0.254940    1.830874
      6          6           0       -2.311232   -0.743884    2.594819
      7          6           0       -0.006254   -1.228403    3.328730
      8          6           0        1.168576   -0.372790    3.328439
      9          6           0        0.717738    1.008786    3.327303
     10          6           0        1.413998    1.969851    2.593466
     11          6           0       -0.709566    2.967521    1.829811
     12          6           0       -2.611039    2.346024    0.593680
     13          6           0       -3.042649    1.751939   -0.593033
     14          6           0       -3.489920    0.369054   -0.592448
     15          6           0       -3.488569   -0.364292    0.594937
     16          6           0       -3.037175   -1.745546    0.595360
     17          6           0       -2.310372   -1.980726    1.831852
     18          6           0       -1.180424   -2.799545    1.831899
     19          6           0       -0.005016   -2.415712    2.595573
     20          6           0        2.298111   -0.738574    2.594890
     21          6           0        2.299406   -1.975018    1.831037
     22          6           0        1.171298   -2.796588    1.831496
     23          6           0        0.722526   -3.415778    0.595431
     24          6           0       -0.730838   -3.417325    0.595460
     25          6           0       -1.428803   -3.191500   -0.591450
     26          6           0       -2.605842   -2.338923   -0.591594
     27          6           0       -2.607544   -1.575606   -1.828355
     28          6           0       -3.040341   -0.248880   -1.828693
     29          6           0       -1.436603    3.201837    0.593195
     30          6           0       -0.010872    1.242029   -3.327394
     31          6           0       -0.012165    2.429274   -2.594272
     32          6           0        1.163404    2.813241   -1.830631
     33          6           0        2.293224    1.994305   -1.830425
     34          6           0        2.294399    0.757597   -2.593912
     35          6           0        0.718649   -0.993630   -3.326880
     36          6           0       -0.734790   -0.995229   -3.326095
     37          6           0       -1.185691    0.386441   -3.327155
     38          6           0       -2.315152    0.752209   -2.593552
     39          6           0       -2.316573    1.988645   -1.829705
     40          6           0       -1.188353    2.810197   -1.830112
     41          6           0        0.713835    3.430892   -0.594233
     42          6           0        1.411825    3.205122    0.592746
     43          6           0        2.588631    2.352553    0.592822
     44          6           0        3.019997    1.759304   -0.594108
     45          6           0        3.471388    0.377834   -0.593641
     46          6           0        3.022737   -0.241286   -1.829704
     47          6           0        2.593075   -1.568924   -1.828962
     48          6           0        1.417817   -1.952966   -2.593140
     49          6           0       -1.431029   -1.956099   -2.592097
     50          6           0       -0.702978   -2.955445   -1.828228
     51          6           0        0.692547   -2.953837   -1.828438
     52          6           0        1.419554   -3.188302   -0.591922
     53          6           0        2.594057   -2.332371   -0.592419
     54          6           0        3.025443   -1.738260    0.594280
     55          6           0        3.472778   -0.355411    0.593729
     56          6           0        3.023205    0.262546    1.830052
     57          6           0        2.590402    1.589225    1.829757
     58          6           0       -0.739566    3.429395   -0.594195
     59          6           0        0.685939    2.969155    1.829610
     60          6           0        1.166036    0.389073   -3.327434
 ---------------------------------------------------------------------
 Rotational constants (GHZ):      0.0835600      0.0835499      0.0835488
 Leave Link  202 at Mon Mar 18 18:56:46 2013, MaxMem= 1441792000 cpu:       0.0
 (Enter /apps/gaussian/g09_c01/g09/l301.exe)
 Standard basis: 6-31G(d) (6D, 7F)
 Ernie: Thresh=  0.10000D-02 Tol=  0.10000D-05 Strict=F.
 Integral buffers will be    131072 words long.
 Raffenetti 2 integral format.
 Two-electron integral symmetry is turned off.
   900 basis functions,  1680 primitive gaussians,   900 cartesian basis functions
   180 alpha electrons      180 beta electrons
       nuclear repulsion energy      8327.0814874430 Hartrees.
 IExCor=  402 DFT=T Ex+Corr=B3LYP ExCW=0 ScaHFX=  0.200000
 ScaDFX=  0.800000  0.720000  1.000000  0.810000 ScalE2=  1.000000  1.000000
 IRadAn=      0 IRanWt=     -1 IRanGd=            0 ICorTp=0
 NAtoms=   60 NActive=   60 NUniq=   60 SFac= 1.00D+00 NAtFMM=   60 NAOKFM=T Big=T
 Leave Link  301 at Mon Mar 18 18:56:46 2013, MaxMem= 1441792000 cpu:       0.4
 (Enter /apps/gaussian/g09_c01/g09/l302.exe)
 NPDir=0 NMtPBC=     1 NCelOv=     1 NCel=       1 NClECP=     1 NCelD=      1
         NCelK=      1 NCelE2=     1 NClLst=     1 CellRange=     0.0.
 One-electron integrals computed using PRISM.
 NBasis=   900 RedAO= T  NBF=   900
 NBsUse=   900 1.00D-06 NBFU=   900
 Precomputing XC quadrature grid using
 IXCGrd= 2 IRadAn=           0 IRanWt=          -1 IRanGd=           0 AccXCQ= 0.00D+00.
 NRdTot=    3720 NPtTot=      474000 NUsed=      500833 NTot=      500865
 NSgBfM=   804   805   805   816   830 NAtAll=    60    60.
 Leave Link  302 at Mon Mar 18 18:56:49 2013, MaxMem= 1441792000 cpu:      22.3
 (Enter /apps/gaussian/g09_c01/g09/l308.exe)
 Leave Link  308 at Mon Mar 18 18:56:50 2013, MaxMem= 1441792000 cpu:       3.1
 (Enter /apps/gaussian/g09_c01/g09/l303.exe)
 DipDrv:  MaxL=1.
 Leave Link  303 at Mon Mar 18 18:56:50 2013, MaxMem= 1441792000 cpu:       1.7
 (Enter /apps/gaussian/g09_c01/g09/l401.exe)
 Initial guess read from the checkpoint file:  c60_neutral_B3LYP_631gSTAR_TDmaster.chk
 B after Tr=    -0.016132    0.012885    0.001221
         Rot=   -0.033726    0.868945   -0.186442    0.457205 Ang= 183.87 deg.
 Guess basis will be translated and rotated to current coordinates.
 Leave Link  401 at Mon Mar 18 18:56:54 2013, MaxMem= 1441792000 cpu:      35.3
 (Enter /apps/gaussian/g09_c01/g09/l502.exe)
 Closed shell SCF:
 Requested convergence on RMS density matrix=1.00D-08 within 128 cycles.
 Requested convergence on MAX density matrix=1.00D-06.
 Requested convergence on             energy=1.00D-06.
 No special actions if energy rises.
 Using DIIS extrapolation, IDIIS=  1040.
 Two-electron integral symmetry not used.
       500280 words used for storage of precomputed grid.
 IEnd=     2961146 IEndB=     2961146 NGot=  1441792000 MDV=  1439658395
 LenX=  1439658395 LenY=  1438847495
 Fock matrices will be formed incrementally for  20 cycles.

 Cycle   1  Pass 1  IDiag  1:
 FoFCou: FMM=T IPFlag=           0 FMFlag=      100000 FMFlg1=        2001
         NFxFlg=           0 DoJE=F BraDBF=F KetDBF=F FulRan=T
         Omega=  0.000000  0.000000  1.000000  0.000000  0.000000 ICntrl=       0 IOpCl=  0
         NMat0=    1 NMatS0=    1 NMatT0=    0 NMatD0=    1 NMtDS0=    0 NMtDT0=    0
         I1Cent=           0 NGrid=           0.
 Symmetry not used in FoFCou.
 FMM levels:  10  Number of levels for PrismC:   9
 E= -2286.17392930775    
 DIIS: error= 2.27D-05 at cycle   1 NSaved=   1.
 NSaved= 1 IEnMin= 1 EnMin= -2286.17392930775     IErMin= 1 ErrMin= 2.27D-05
 ErrMax= 2.27D-05 EMaxC= 1.00D-01 BMatC= 4.38D-07 BMatP= 4.38D-07
 IDIUse=1 WtCom= 1.00D+00 WtEn= 0.00D+00
 Coeff-Com:  0.100D+01
 Coeff:      0.100D+01
 Gap=     0.101 Goal=   None    Shift=    0.000
 RMSDP=3.65D-06 MaxDP=8.61D-05              OVMax= 9.97D-05

 Cycle   2  Pass 1  IDiag  1:
 RMSU=  2.58D-06    CP:  1.00D+00
 E= -2286.17392989939     Delta-E=       -0.000000591644 Rises=F Damp=F
 DIIS: error= 1.67D-06 at cycle   2 NSaved=   2.
 NSaved= 2 IEnMin= 2 EnMin= -2286.17392989939     IErMin= 2 ErrMin= 1.67D-06
 ErrMax= 1.67D-06 EMaxC= 1.00D-01 BMatC= 6.76D-09 BMatP= 4.38D-07
 IDIUse=1 WtCom= 1.00D+00 WtEn= 0.00D+00
 Coeff-Com: -0.147D-01 0.101D+01
 Coeff:     -0.147D-01 0.101D+01
 Gap=     0.101 Goal=   None    Shift=    0.000
 RMSDP=3.37D-07 MaxDP=1.47D-05 DE=-5.92D-07 OVMax= 3.38D-05

 Cycle   3  Pass 1  IDiag  1:
 RMSU=  2.23D-07    CP:  1.00D+00  1.03D+00
 E= -2286.17392989229     Delta-E=        0.000000007100 Rises=F Damp=F
 DIIS: error= 4.64D-06 at cycle   3 NSaved=   3.
 NSaved= 3 IEnMin= 2 EnMin= -2286.17392989939     IErMin= 2 ErrMin= 1.67D-06
 ErrMax= 4.64D-06 EMaxC= 1.00D-01 BMatC= 1.35D-08 BMatP= 6.76D-09
 IDIUse=1 WtCom= 1.00D+00 WtEn= 0.00D+00
 Coeff-Com: -0.217D-01 0.616D+00 0.406D+00
 Coeff:     -0.217D-01 0.616D+00 0.406D+00
 Gap=     0.101 Goal=   None    Shift=    0.000
 RMSDP=2.28D-07 MaxDP=1.10D-05 DE= 7.10D-09 OVMax= 4.06D-05

 Cycle   4  Pass 1  IDiag  1:
 RMSU=  1.10D-07    CP:  1.00D+00  1.04D+00  4.74D-01
 E= -2286.17392990387     Delta-E=       -0.000000011582 Rises=F Damp=F
 DIIS: error= 2.35D-06 at cycle   4 NSaved=   4.
 NSaved= 4 IEnMin= 4 EnMin= -2286.17392990387     IErMin= 2 ErrMin= 1.67D-06
 ErrMax= 2.35D-06 EMaxC= 1.00D-01 BMatC= 2.98D-09 BMatP= 6.76D-09
 IDIUse=1 WtCom= 1.00D+00 WtEn= 0.00D+00
 Coeff-Com: -0.123D-01 0.277D+00 0.311D+00 0.424D+00
 Coeff:     -0.123D-01 0.277D+00 0.311D+00 0.424D+00
 Gap=     0.101 Goal=   None    Shift=    0.000
 RMSDP=8.87D-08 MaxDP=4.31D-06 DE=-1.16D-08 OVMax= 1.67D-05

 Cycle   5  Pass 1  IDiag  1:
 RMSU=  2.92D-08    CP:  1.00D+00  1.04D+00  5.33D-01  5.08D-01
 E= -2286.17392990681     Delta-E=       -0.000000002941 Rises=F Damp=F
 DIIS: error= 4.64D-07 at cycle   5 NSaved=   5.
 NSaved= 5 IEnMin= 5 EnMin= -2286.17392990681     IErMin= 5 ErrMin= 4.64D-07
 ErrMax= 4.64D-07 EMaxC= 1.00D-01 BMatC= 2.19D-10 BMatP= 2.98D-09
 IDIUse=1 WtCom= 1.00D+00 WtEn= 0.00D+00
 Coeff-Com: -0.513D-02 0.990D-01 0.155D+00 0.267D+00 0.485D+00
 Coeff:     -0.513D-02 0.990D-01 0.155D+00 0.267D+00 0.485D+00
 Gap=     0.101 Goal=   None    Shift=    0.000
 RMSDP=2.38D-08 MaxDP=1.05D-06 DE=-2.94D-09 OVMax= 3.89D-06

 Cycle   6  Pass 1  IDiag  1:
 RMSU=  9.47D-09    CP:  1.00D+00  1.04D+00  5.46D-01  5.46D-01  5.64D-01
 E= -2286.17392990736     Delta-E=       -0.000000000549 Rises=F Damp=F
 DIIS: error= 1.04D-07 at cycle   6 NSaved=   6.
 NSaved= 6 IEnMin= 6 EnMin= -2286.17392990736     IErMin= 6 ErrMin= 1.04D-07
 ErrMax= 1.04D-07 EMaxC= 1.00D-01 BMatC= 1.20D-11 BMatP= 2.19D-10
 IDIUse=1 WtCom= 1.00D+00 WtEn= 0.00D+00
 Coeff-Com: -0.125D-02 0.185D-01 0.417D-01 0.713D-01 0.230D+00 0.640D+00
 Coeff:     -0.125D-02 0.185D-01 0.417D-01 0.713D-01 0.230D+00 0.640D+00
 Gap=     0.101 Goal=   None    Shift=    0.000
 RMSDP=6.62D-09 MaxDP=4.31D-07 DE=-5.49D-10 OVMax= 9.91D-07

 SCF Done:  E(RB3LYP) =  -2286.17392991     A.U. after    6 cycles
             Convg  =    0.6615D-08             -V/T =  2.0094
 KE= 2.264963806193D+03 PE=-2.194528846434D+04 EE= 9.067069240797D+03
 Leave Link  502 at Mon Mar 18 19:14:46 2013, MaxMem= 1441792000 cpu:    8565.9
 (Enter /apps/gaussian/g09_c01/g09/l801.exe)
 ExpMin= 1.69D-01 ExpMax= 3.05D+03 ExpMxC= 4.57D+02 IAcc=3 IRadAn=         5 AccDes= 0.00D+00
 HarFok:  IExCor=  205 AccDes= 0.00D+00 IRadAn=         5 IDoV=-2
 ScaDFX=  1.000000  1.000000  1.000000  1.000000
 Largest valence mixing into a core orbital is  6.66D-05
 Largest core mixing into a valence orbital is  1.82D-05
 Range of M.O.s used for correlation:    61   900
 NBasis=   900 NAE=   180 NBE=   180 NFC=    60 NFV=     0
 NROrb=    840 NOA=   120 NOB=   120 NVA=   720 NVB=   720
 Leave Link  801 at Mon Mar 18 19:14:47 2013, MaxMem= 1441792000 cpu:       4.3
 (Enter /apps/gaussian/g09_c01/g09/l914.exe)
 RHF ground state
 MDV=  1441792000 DFT=T DoStab=F Mixed=T DoRPA=T DoScal=F NonHer=T
 Would need an additional247956800000 words for in-memory AO integral storage.
 Making orbital integer symmetry assigments:
    48 initial guesses have been made.
 Convergence on wavefunction:    0.001000000000000
 Davidson Disk Diagonalization:  ConvIn= 1.00D-03 SkipCon=T Conv= 1.00D-03.
 Max sub-space:   200 roots to seek:    48 dimension of matrix: 172800
 Iteration     1 Dimension    48 NMult    48
 CISAX:  IP=  8 NPass=   1 NMax=    48.
 CISAX will form    48 AO SS matrices at one time.
 NMat=    48 NSing=    48.
 FoFCou: FMM=T IPFlag=           0 FMFlag=      100000 FMFlg1=        2001
         NFxFlg=           0 DoJE=F BraDBF=F KetDBF=F FulRan=T
         Omega=  0.000000  0.000000  1.000000  0.000000  0.000000 ICntrl=       0 IOpCl=  0
         NMat0=   48 NMatS0=   48 NMatT0=    0 NMatD0=   48 NMtDS0=    0 NMtDT0=    0
         I1Cent=           0 NGrid=           0.
 Symmetry not used in FoFCou.
 FMM levels:  10  Number of levels for PrismC:   9
 CISAX:  IP=  8 NPass=   1 NMax=    48.
 CISAX will form    48 AO SS matrices at one time.
 NMat=    48 NSing=    48.
 New state      2 was old state     12
 New state      3 was old state     10
 New state      4 was old state      9
 New state      5 was old state      2
 New state      6 was old state      5
 New state      7 was old state      6
 New state      8 was old state      3
 New state      9 was old state      7
 New state     10 was old state     11
 No map to state     11
 New state     12 was old state      4
 Excitation Energies [eV] at current iteration:
 Root      1 :     2.134513600838225
 Root      2 :     2.135044063026136
 Root      3 :     2.135194284822447
 Root      4 :     2.135538992641728
 Root      5 :     2.214319687079450
 Root      6 :     2.214555598631991
 Root      7 :     2.214834891274726
 Root      8 :     2.227362040087054
 Root      9 :     2.228028390096820
 Root     10 :     2.228276146799399
 Root     11 :     2.714649223842108
 Root     12 :     2.715034309010408
 Iteration     2 Dimension    72 NMult    72
 CISAX:  IP=  8 NPass=   1 NMax=    24.
 CISAX will form    24 AO SS matrices at one time.
 NMat=    24 NSing=    24.
 CISAX:  IP=  8 NPass=   1 NMax=    24.
 CISAX will form    24 AO SS matrices at one time.
 NMat=    24 NSing=    24.
 Root      1 not converged, maximum delta is    0.040562180943512
 Root      2 not converged, maximum delta is    0.037529423025414
 Root      3 not converged, maximum delta is    0.028819507024253
 Root      4 not converged, maximum delta is    0.020137212230377
 Root      5 not converged, maximum delta is    0.101840594866566
 Root      6 not converged, maximum delta is    0.061452271200622
 Root      7 not converged, maximum delta is    0.055912837399162
 Root      8 not converged, maximum delta is    0.043759028767981
 Root      9 not converged, maximum delta is    0.035559630252442
 Root     10 not converged, maximum delta is    0.040037194812010
 Root     11 not converged, maximum delta is    0.037183526215102
 Root     12 not converged, maximum delta is    0.047427911909747
 Excitation Energies [eV] at current iteration:
 Root      1 :     2.100538057465914   Change is   -0.033975543372311
 Root      2 :     2.101070815530262   Change is   -0.033973247495874
 Root      3 :     2.101252031190267   Change is   -0.033942253632180
 Root      4 :     2.101605875927930   Change is   -0.033933116713798
 Root      5 :     2.109721575510269   Change is   -0.104598111569182
 Root      6 :     2.109870495034148   Change is   -0.104685103597843
 Root      7 :     2.110147279263408   Change is   -0.104687612011317
 Root      8 :     2.112806346054499   Change is   -0.114555694032555
 Root      9 :     2.113460955547478   Change is   -0.114567434549341
 Root     10 :     2.113724895594389   Change is   -0.114551251205010
 Root     11 :     2.293972502862854   Change is   -0.420676720979254
 Root     12 :     2.294456798929742   Change is   -0.420577510080666
 Iteration     3 Dimension    96 NMult    96
 CISAX:  IP=  8 NPass=   1 NMax=    24.
 CISAX will form    24 AO SS matrices at one time.
 NMat=    24 NSing=    24.
 CISAX:  IP=  8 NPass=   1 NMax=    24.
 CISAX will form    24 AO SS matrices at one time.
 NMat=    24 NSing=    24.
 Root      1 not converged, maximum delta is    0.008679227511663
 Root      2 not converged, maximum delta is    0.007934543593557
 Root      3 not converged, maximum delta is    0.007520009836527
 Root      4 not converged, maximum delta is    0.006941226770958
 Root      5 not converged, maximum delta is    0.196738380690963
 Root      6 not converged, maximum delta is    0.169839937212677
 New state      7 was old state      8
 Root      7 not converged, maximum delta is    0.211750269579030
 New state      8 was old state      7
 Root      8 not converged, maximum delta is    0.152728599514704
 Root      9 not converged, maximum delta is    0.170115954661278
 Root     10 not converged, maximum delta is    0.152737076830672
 Root     11 not converged, maximum delta is    0.007526508836756
 Root     12 not converged, maximum delta is    0.009625298787522
 Excitation Energies [eV] at current iteration:
 Root      1 :     2.096310919872352   Change is   -0.004227137593563
 Root      2 :     2.096833146202014   Change is   -0.004237669328249
 Root      3 :     2.097011298759711   Change is   -0.004240732430556
 Root      4 :     2.097361181257310   Change is   -0.004244694670620
 Root      5 :     2.107664215503122   Change is   -0.002057360007146
 Root      6 :     2.108143217989877   Change is   -0.001727277044271
 Root      7 :     2.108273393183439   Change is   -0.004532952871060
 Root      8 :     2.108589631182141   Change is   -0.001557648081267
 Root      9 :     2.108950567329279   Change is   -0.004510388218200
 Root     10 :     2.109308824962342   Change is   -0.004416070632047
 Root     11 :     2.281981338783703   Change is   -0.011991164079151
 Root     12 :     2.282467614843054   Change is   -0.011989184086688
 Iteration     4 Dimension   120 NMult   120
 CISAX:  IP=  8 NPass=   1 NMax=    24.
 CISAX will form    24 AO SS matrices at one time.
 NMat=    24 NSing=    24.
 CISAX:  IP=  8 NPass=   1 NMax=    24.
 CISAX will form    24 AO SS matrices at one time.
 NMat=    24 NSing=    24.
 Root      1 not converged, maximum delta is    0.001197662654646
 Root      2 not converged, maximum delta is    0.001000631821677
 Root      3 not converged, maximum delta is    0.001103648723288
 Root      4 not converged, maximum delta is    0.001155884774212
 Root      5 not converged, maximum delta is    0.022756024274757
 Root      6 not converged, maximum delta is    0.031028009771698
 Root      7 not converged, maximum delta is    0.041452354888562
 Root      8 not converged, maximum delta is    0.019192014940839
 Root      9 not converged, maximum delta is    0.028401059532081
 Root     10 not converged, maximum delta is    0.012619162615635
 Root     11 not converged, maximum delta is    0.002937773165946
 Root     12 not converged, maximum delta is    0.003719061090522
 Excitation Energies [eV] at current iteration:
 Root      1 :     2.096033426956191   Change is   -0.000277492916160
 Root      2 :     2.096554653456943   Change is   -0.000278492745071
 Root      3 :     2.096732558822630   Change is   -0.000278739937081
 Root      4 :     2.097082105783040   Change is   -0.000279075474271
 Root      5 :     2.107548971512747   Change is   -0.000115243990375
 Root      6 :     2.108054938479657   Change is   -0.000088279510220
 Root      7 :     2.108143751663398   Change is   -0.000129641520041
 Root      8 :     2.108528160066668   Change is   -0.000061471115473
 Root      9 :     2.108827862367124   Change is   -0.000122704962155
 Root     10 :     2.109185306724322   Change is   -0.000123518238021
 Root     11 :     2.280384693389985   Change is   -0.001596645393718
 Root     12 :     2.280870469171593   Change is   -0.001597145671461
 Iteration     5 Dimension   144 NMult   144
 CISAX:  IP=  8 NPass=   1 NMax=    24.
 CISAX will form    24 AO SS matrices at one time.
 NMat=    24 NSing=    24.
 CISAX:  IP=  8 NPass=   1 NMax=    24.
 CISAX will form    24 AO SS matrices at one time.
 NMat=    24 NSing=    24.
 Root      1 has converged.
 Root      2 has converged.
 Root      3 has converged.
 Root      4 has converged.
 Root      5 has converged.
 Root      6 not converged, maximum delta is    0.001342953051503
 Root      7 not converged, maximum delta is    0.001523100444699
 Root      8 has converged.
 Root      9 not converged, maximum delta is    0.001013501587338
 Root     10 has converged.
 Root     11 has converged.
 Root     12 has converged.
 Excitation Energies [eV] at current iteration:
 Root      1 :     2.096016567364338   Change is   -0.000016859591853
 Root      2 :     2.096537753265177   Change is   -0.000016900191765
 Root      3 :     2.096715631159142   Change is   -0.000016927663488
 Root      4 :     2.097065153165178   Change is   -0.000016952617861
 Root      5 :     2.107544293174653   Change is   -0.000004678338094
 Root      6 :     2.108051146761690   Change is   -0.000003791717967
 Root      7 :     2.108138750597800   Change is   -0.000005001065598
 Root      8 :     2.108525390075312   Change is   -0.000002769991356
 Root      9 :     2.108823156757280   Change is   -0.000004705609845
 Root     10 :     2.109180575496306   Change is   -0.000004731228016
 Root     11 :     2.280165804793979   Change is   -0.000218888596006
 Root     12 :     2.280651942047854   Change is   -0.000218527123739
 Iteration     6 Dimension   150 NMult   150
 CISAX:  IP=  1 NPass=   1 NMax=     6.
 CISAX will form     6 AO SS matrices at one time.
 NMat=     6 NSing=     6.
 CISAX:  IP=  1 NPass=   1 NMax=     6.
 CISAX will form     6 AO SS matrices at one time.
 NMat=     6 NSing=     6.
 Root      1 has converged.
 Root      2 has converged.
 Root      3 has converged.
 Root      4 has converged.
 Root      5 has converged.
 Root      6 has converged.
 Root      7 has converged.
 Root      8 has converged.
 Root      9 has converged.
 Root     10 has converged.
 Root     11 has converged.
 Root     12 has converged.
 Excitation Energies [eV] at current iteration:
 Root      1 :     2.096016565616990   Change is   -0.000000001747348
 Root      2 :     2.096537752933371   Change is   -0.000000000331806
 Root      3 :     2.096715630293045   Change is   -0.000000000866097
 Root      4 :     2.097065152604332   Change is   -0.000000000560847
 Root      5 :     2.107544270538682   Change is   -0.000000022635971
 Root      6 :     2.108050996899244   Change is   -0.000000149862446
 Root      7 :     2.108138548797369   Change is   -0.000000201800431
 Root      8 :     2.108525384933094   Change is   -0.000000005142219
 Root      9 :     2.108822950629489   Change is   -0.000000206127790
 Root     10 :     2.109180545404952   Change is   -0.000000030091354
 Root     11 :     2.280165800417450   Change is   -0.000000004376529
 Root     12 :     2.280651934699863   Change is   -0.000000007347991
 Convergence achieved on expansion vectors.
 ***********************************************************************
 Excited states from <AA,BB:AA,BB> singles matrix:
 ***********************************************************************
 
 1PDM for each excited state written to RWF  633
 Ground to excited state transition densities written to RWF  633
 Ground to excited state transition electric dipole moments (Au):
       state          X           Y           Z        Dip. S.      Osc.
         1        -0.0001     -0.0001     -0.0001      0.0000      0.0000
         2         0.0000      0.0000      0.0000      0.0000      0.0000
         3         0.0000     -0.0001      0.0001      0.0000      0.0000
         4         0.0001      0.0000      0.0000      0.0000      0.0000
         5         0.0001      0.0001     -0.0001      0.0000      0.0000
         6        -0.0001     -0.0001     -0.0001      0.0000      0.0000
         7         0.0000     -0.0001      0.0000      0.0000      0.0000
         8        -0.0001      0.0000     -0.0001      0.0000      0.0000
         9         0.0001      0.0000      0.0001      0.0000      0.0000
        10         0.0000      0.0001     -0.0001      0.0000      0.0000
        11         0.0000      0.0000      0.0001      0.0000      0.0000
        12         0.0000      0.0000      0.0001      0.0000      0.0000
 Ground to excited state transition velocity dipole moments (Au):
       state          X           Y           Z        Dip. S.      Osc.
         1         0.0000      0.0000      0.0000      0.0000      0.0000
         2         0.0000      0.0000      0.0000      0.0000      0.0000
         3         0.0000      0.0000      0.0000      0.0000      0.0000
         4         0.0000      0.0000      0.0000      0.0000      0.0000
         5         0.0000      0.0000      0.0000      0.0000      0.0000
         6         0.0000      0.0000      0.0000      0.0000      0.0000
         7         0.0000      0.0000      0.0000      0.0000      0.0000
         8         0.0000      0.0000      0.0000      0.0000      0.0000
         9         0.0000      0.0000      0.0000      0.0000      0.0000
        10         0.0000      0.0000      0.0000      0.0000      0.0000
        11         0.0000      0.0000      0.0000      0.0000      0.0000
        12         0.0000      0.0000      0.0000      0.0000      0.0000
 Ground to excited state transition magnetic dipole moments (Au):
       state          X           Y           Z
         1        -0.3173      0.0237      0.0303
         2        -0.0447      0.2117     -0.0761
         3        -0.1669      0.0580      0.0907
         4        -0.0035     -0.0497     -0.1438
         5        -2.7030      0.8084     -0.5557
         6         1.0652     -0.0461     -3.4991
         7        -2.1952     -0.3341     -1.1386
         8         0.4533      4.3324     -0.7624
         9         1.3028     -1.1706     -2.2639
        10         2.4228      0.4511      1.2540
        11         0.0062     -0.0019      0.0013
        12         0.0020     -0.0040      0.0041
 Ground to excited state transition velocity quadrupole moments (Au):
       state          XX          YY          ZZ          XY          XZ          YZ
         1        -0.0003     -0.0001      0.0002     -0.0001     -0.0006     -0.0009
         2         0.0001     -0.0007      0.0006     -0.0001     -0.0003     -0.0013
         3        -0.0003     -0.0005      0.0010     -0.0003      0.0003      0.0014
         4        -0.0005      0.0001      0.0004     -0.0004      0.0005     -0.0004
         5         0.0006     -0.0002     -0.0001      0.0003     -0.0003      0.0002
         6         0.0004     -0.0001     -0.0003      0.0004      0.0005      0.0003
         7        -0.0001     -0.0004      0.0004     -0.0001      0.0000      0.0001
         8         0.0001     -0.0002      0.0000      0.0004      0.0004     -0.0004
         9         0.0005     -0.0012      0.0007      0.0004     -0.0005      0.0000
        10        -0.0001     -0.0007      0.0009     -0.0004      0.0001      0.0007
        11         0.0659      0.0243     -0.0901      0.0513     -0.1403     -0.3622
        12         0.0801      0.2482     -0.3283      0.2286      0.1361      0.0360
 <0|del|b> * <b|rxdel|0> + <0|del|b> * <b|delr+rdel|0>
 Rotatory Strengths (R) in cgs (10**-40 erg-esu-cm/Gauss)
       state          XX          YY          ZZ    R(velocity)
         1         0.0023     -0.0094     -0.0104     -0.0059
         2        -0.0020     -0.0011     -0.0022     -0.0017
         3        -0.0003      0.0017      0.0062      0.0025
         4        -0.0015     -0.0017      0.0005     -0.0009
         5        -0.0360      0.1282      0.1358      0.0760
         6        -0.1335     -0.1221      0.0078     -0.0826
         7        -0.0133     -0.0435     -0.0671     -0.0413
         8        -0.0242     -0.0084      0.0218     -0.0036
         9         0.1011      0.0539     -0.0199      0.0450
        10         0.0142     -0.0310     -0.0632     -0.0267
        11        -0.0003     -0.0017      0.0020      0.0000
        12        -0.0126      0.0098      0.0023     -0.0001
 1/2[<0|r|b>*<b|rxdel|0> + (<0|rxdel|b>*<b|r|0>)*]
 Rotatory Strengths (R) in cgs (10**-40 erg-esu-cm/Gauss)
       state          XX          YY          ZZ     R(length)
         1        -0.0253      0.0012      0.0025     -0.0072
         2        -0.0006     -0.0025     -0.0027     -0.0019
         3         0.0053      0.0036     -0.0038      0.0017
         4         0.0003     -0.0002     -0.0024     -0.0008
         5         0.2502     -0.0318     -0.0485      0.0566
         6         0.0676     -0.0024     -0.1247     -0.0198
         7        -0.0771     -0.0311      0.0112     -0.0324
         8         0.0277      0.0390     -0.0606      0.0020
         9        -0.0588      0.0218      0.0895      0.0175
        10        -0.0472     -0.0326      0.0699     -0.0033
        11         0.0000      0.0000     -0.0001      0.0000
        12         0.0001     -0.0001     -0.0002     -0.0001
  1/2[<0|del|b>*<b|r|0> + (<0|r|b>*<b|del|0>)*] (Au)
       state          X           Y           Z        Dip. S.   Osc.(frdel)
         1         0.0000      0.0000      0.0000      0.0000      0.0000
         2         0.0000      0.0000      0.0000      0.0000      0.0000
         3         0.0000      0.0000      0.0000      0.0000      0.0000
         4         0.0000      0.0000      0.0000      0.0000      0.0000
         5         0.0000      0.0000      0.0000      0.0000      0.0000
         6         0.0000      0.0000      0.0000      0.0000      0.0000
         7         0.0000      0.0000      0.0000      0.0000      0.0000
         8         0.0000      0.0000      0.0000      0.0000      0.0000
         9         0.0000      0.0000      0.0000      0.0000      0.0000
        10         0.0000      0.0000      0.0000      0.0000      0.0000
        11         0.0000      0.0000      0.0000      0.0000      0.0000
        12         0.0000      0.0000      0.0000      0.0000      0.0000

 Excitation energies and oscillator strengths:
 
 Excited state symmetry could not be determined.
 Excited State   1:      Singlet-?Sym    2.0960 eV  591.52 nm  f=0.0000  <S**2>=0.000
     176 ->183         0.12336
     177 ->182         0.24870
     178 ->181        -0.17560
     178 ->182         0.29252
     178 ->183         0.13363
     179 ->181         0.27956
     180 ->181         0.40766
     180 ->182         0.17239
 This state for optimization and/or second-order correction.
 Total Energy, E(TD-HF/TD-KS) =  -2286.09690271    
 Copying the excited state density for this state as the 1-particle RhoCI density.
 
 Excited state symmetry could not be determined.
 Excited State   2:      Singlet-?Sym    2.0965 eV  591.38 nm  f=0.0000  <S**2>=0.000
     176 ->181        -0.13842
     176 ->182         0.33936
     177 ->181        -0.23610
     177 ->183         0.10739
     178 ->181         0.27172
     178 ->183         0.23583
     179 ->181        -0.17667
     180 ->181         0.23486
     180 ->182        -0.11049
     180 ->183         0.20609
 
 Excited state symmetry could not be determined.
 Excited State   3:      Singlet-?Sym    2.0967 eV  591.33 nm  f=0.0000  <S**2>=0.000
     176 ->181        -0.21352
     176 ->182        -0.24922
     176 ->183         0.26613
     177 ->181        -0.18229
     178 ->181         0.14337
     179 ->181         0.29967
     179 ->183         0.37748
 
 Excited state symmetry could not be determined.
 Excited State   4:      Singlet-?Sym    2.0971 eV  591.23 nm  f=0.0000  <S**2>=0.000
     176 ->183        -0.13772
     177 ->182         0.24547
     177 ->183         0.36668
     178 ->182        -0.28400
     178 ->183         0.10555
     179 ->182        -0.23540
     179 ->183         0.10871
     180 ->182         0.20028
     180 ->183        -0.25673
 
 Excited state symmetry could not be determined.
 Excited State   5:      Singlet-?Sym    2.1075 eV  588.29 nm  f=0.0000  <S**2>=0.000
     176 ->181         0.13718
     177 ->181         0.25452
     178 ->181         0.36857
     178 ->182        -0.15231
     178 ->183        -0.11472
     179 ->181         0.23976
     180 ->181         0.29965
     180 ->182        -0.19656
     180 ->183        -0.17656
 
 Excited state symmetry could not be determined.
 Excited State   6:      Singlet-?Sym    2.1081 eV  588.15 nm  f=0.0000  <S**2>=0.000
     176 ->182        -0.10765
     177 ->181         0.21715
     177 ->183        -0.11300
     178 ->181         0.25201
     178 ->183        -0.12879
     179 ->181        -0.10633
     179 ->182        -0.32870
     180 ->182         0.36345
     180 ->183         0.28492
 
 Excited state symmetry could not be determined.
 Excited State   7:      Singlet-?Sym    2.1081 eV  588.12 nm  f=0.0000  <S**2>=0.000
     176 ->181         0.15356
     176 ->182         0.11105
     177 ->181        -0.10046
     177 ->182        -0.19298
     178 ->181        -0.11798
     178 ->182        -0.34713
     179 ->181         0.21858
     179 ->182         0.19331
     179 ->183        -0.13144
     180 ->182         0.35383
     180 ->183         0.21403
 
 Excited state symmetry could not be determined.
 Excited State   8:      Singlet-?Sym    2.1085 eV  588.01 nm  f=0.0000  <S**2>=0.000
     176 ->181        -0.18297
     176 ->182        -0.22910
     177 ->181        -0.15257
     177 ->182         0.36302
     178 ->181         0.17829
     178 ->182        -0.10481
     178 ->183        -0.12746
     179 ->181        -0.12643
     179 ->182         0.24539
     179 ->183        -0.31954
     180 ->183         0.10840
 
 Excited state symmetry could not be determined.
 Excited State   9:      Singlet-?Sym    2.1088 eV  587.93 nm  f=0.0000  <S**2>=0.000
     176 ->181         0.43903
     176 ->183         0.41933
     177 ->182         0.21741
     177 ->183        -0.15276
     178 ->183         0.15719
     179 ->181        -0.11393
 
 Excited state symmetry could not be determined.
 Excited State  10:      Singlet-?Sym    2.1092 eV  587.83 nm  f=0.0000  <S**2>=0.000
     176 ->181         0.10333
     176 ->183         0.27029
     177 ->182        -0.11314
     177 ->183         0.43692
     178 ->182         0.15122
     178 ->183        -0.29776
     179 ->183        -0.28056
 
 Excited state symmetry could not be determined.
 Excited State  11:      Singlet-?Sym    2.2802 eV  543.75 nm  f=0.0000  <S**2>=0.000
     176 ->182        -0.24332
     177 ->182        -0.16569
     178 ->181        -0.20936
     178 ->183        -0.18829
     179 ->181        -0.34864
     179 ->183         0.15418
     180 ->181         0.39628
 
 Excited state symmetry could not be determined.
 Excited State  12:      Singlet-?Sym    2.2807 eV  543.63 nm  f=0.0000  <S**2>=0.000
     176 ->181        -0.26516
     176 ->182         0.13810
     176 ->183         0.17508
     177 ->181         0.45126
     177 ->183         0.16619
     178 ->182        -0.11402
     179 ->181        -0.11848
     179 ->182         0.29039
     180 ->182         0.11308
 SavETr:  write IOETrn=   770 NScale= 10 NData=  16 NLR=1 LETran=     226.
 Leave Link  914 at Mon Mar 18 22:41:56 2013, MaxMem= 1441792000 cpu:   99365.0
 (Enter /apps/gaussian/g09_c01/g09/l601.exe)
 Copying SCF densities to generalized density rwf, IOpCl= 0 IROHF=0.

 **********************************************************************

            Population analysis using the SCF density.

 **********************************************************************

 Alpha  occ. eigenvalues --  -10.23174 -10.23171 -10.23169 -10.23168 -10.23162
 Alpha  occ. eigenvalues --  -10.23161 -10.23160 -10.23159 -10.23159 -10.23150
 Alpha  occ. eigenvalues --  -10.23150 -10.23149 -10.23148 -10.23148 -10.23147
 Alpha  occ. eigenvalues --  -10.23146 -10.23139 -10.23138 -10.23138 -10.23137
 Alpha  occ. eigenvalues --  -10.23135 -10.23135 -10.23134 -10.23134 -10.23134
 Alpha  occ. eigenvalues --  -10.23131 -10.23131 -10.23130 -10.23129 -10.23129
 Alpha  occ. eigenvalues --  -10.23101 -10.23101 -10.23100 -10.23097 -10.23097
 Alpha  occ. eigenvalues --  -10.23096 -10.23087 -10.23086 -10.23086 -10.23085
 Alpha  occ. eigenvalues --  -10.23085 -10.23083 -10.23082 -10.23082 -10.23079
 Alpha  occ. eigenvalues --  -10.23078 -10.23078 -10.23078 -10.23077 -10.23070
 Alpha  occ. eigenvalues --  -10.23069 -10.23068 -10.23068 -10.23059 -10.23057
 Alpha  occ. eigenvalues --  -10.23057 -10.23056 -10.23056 -10.23056 -10.23055
 Alpha  occ. eigenvalues --   -0.96803  -0.94833  -0.94831  -0.94829  -0.91052
 Alpha  occ. eigenvalues --   -0.91051  -0.91050  -0.91049  -0.91047  -0.87070
 Alpha  occ. eigenvalues --   -0.87069  -0.87068  -0.83894  -0.83891  -0.83891
 Alpha  occ. eigenvalues --   -0.83890  -0.78850  -0.78850  -0.78849  -0.78848
 Alpha  occ. eigenvalues --   -0.78847  -0.77175  -0.77173  -0.77173  -0.77171
 Alpha  occ. eigenvalues --   -0.71567  -0.71565  -0.71565  -0.71564  -0.71562
 Alpha  occ. eigenvalues --   -0.70146  -0.70145  -0.70144  -0.65858  -0.65857
 Alpha  occ. eigenvalues --   -0.65856  -0.62236  -0.62235  -0.62233  -0.62232
 Alpha  occ. eigenvalues --   -0.62231  -0.61938  -0.61935  -0.61933  -0.59341
 Alpha  occ. eigenvalues --   -0.55225  -0.55223  -0.55223  -0.55221  -0.52882
 Alpha  occ. eigenvalues --   -0.52882  -0.52881  -0.52880  -0.52879  -0.51240
 Alpha  occ. eigenvalues --   -0.51239  -0.51236  -0.48701  -0.48700  -0.48699
 Alpha  occ. eigenvalues --   -0.47916  -0.46188  -0.46187  -0.46187  -0.46186
 Alpha  occ. eigenvalues --   -0.45597  -0.45594  -0.45594  -0.44266  -0.44266
 Alpha  occ. eigenvalues --   -0.44265  -0.44263  -0.44262  -0.42959  -0.42959
 Alpha  occ. eigenvalues --   -0.42958  -0.42956  -0.41813  -0.41812  -0.41811
 Alpha  occ. eigenvalues --   -0.41140  -0.41139  -0.41138  -0.41137  -0.41136
 Alpha  occ. eigenvalues --   -0.39935  -0.39933  -0.39932  -0.39931  -0.35765
 Alpha  occ. eigenvalues --   -0.35763  -0.35761  -0.35761  -0.35760  -0.35689
 Alpha  occ. eigenvalues --   -0.35687  -0.35687  -0.34624  -0.34624  -0.34624
 Alpha  occ. eigenvalues --   -0.34623  -0.34620  -0.33744  -0.33743  -0.33742
 Alpha  occ. eigenvalues --   -0.33741  -0.26997  -0.26996  -0.26995  -0.26995
 Alpha  occ. eigenvalues --   -0.26994  -0.26871  -0.26871  -0.26870  -0.26869
 Alpha  occ. eigenvalues --   -0.22005  -0.22004  -0.22003  -0.22002  -0.22000
 Alpha virt. eigenvalues --   -0.11855  -0.11851  -0.11849  -0.07522  -0.07519
 Alpha virt. eigenvalues --   -0.07513  -0.03534  -0.03532  -0.03528  -0.03093
 Alpha virt. eigenvalues --   -0.03091  -0.03091  -0.03087  -0.03085   0.02929
 Alpha virt. eigenvalues --    0.02931   0.02937   0.02939   0.02942   0.04830
 Alpha virt. eigenvalues --    0.04835   0.04839   0.04843   0.07358   0.07361
 Alpha virt. eigenvalues --    0.07363   0.07365   0.09380   0.09383   0.09386
 Alpha virt. eigenvalues --    0.13200   0.13203   0.13208   0.15865   0.15866
 Alpha virt. eigenvalues --    0.15869   0.15870   0.15874   0.18656   0.18659
 Alpha virt. eigenvalues --    0.18662   0.19454   0.19458   0.19462   0.20066
 Alpha virt. eigenvalues --    0.20069   0.20070   0.20072   0.23671   0.23679
 Alpha virt. eigenvalues --    0.23679   0.23683   0.23685   0.25788   0.25790
 Alpha virt. eigenvalues --    0.25792   0.25795   0.28929   0.28931   0.28936
 Alpha virt. eigenvalues --    0.28937   0.28938   0.31355   0.31357   0.31361
 Alpha virt. eigenvalues --    0.33058   0.33062   0.33065   0.36079   0.36082
 Alpha virt. eigenvalues --    0.36090   0.38552   0.38556   0.38557   0.38559
 Alpha virt. eigenvalues --    0.38562   0.44109   0.44113   0.44121   0.44211
 Alpha virt. eigenvalues --    0.45900   0.46572   0.46575   0.46578   0.46579
 Alpha virt. eigenvalues --    0.46581   0.46583   0.46585   0.46590   0.46851
 Alpha virt. eigenvalues --    0.46852   0.46856   0.46861   0.46862   0.47718
 Alpha virt. eigenvalues --    0.47719   0.47731   0.50222   0.50235   0.50238
 Alpha virt. eigenvalues --    0.50500   0.50501   0.50503   0.50503   0.50505
 Alpha virt. eigenvalues --    0.50665   0.50671   0.50677   0.52623   0.52626
 Alpha virt. eigenvalues --    0.52628   0.52630   0.52832   0.52836   0.52837
 Alpha virt. eigenvalues --    0.52839   0.53667   0.53669   0.53669   0.53852
 Alpha virt. eigenvalues --    0.53856   0.53858   0.53862   0.53864   0.55000
 Alpha virt. eigenvalues --    0.55269   0.55270   0.55271   0.55272   0.55275
 Alpha virt. eigenvalues --    0.55276   0.55277   0.55278   0.55279   0.55776
 Alpha virt. eigenvalues --    0.55777   0.55779   0.56307   0.56314   0.56318
 Alpha virt. eigenvalues --    0.56320   0.56324   0.57125   0.57127   0.57128
 Alpha virt. eigenvalues --    0.57628   0.57629   0.57638   0.57640   0.57644
 Alpha virt. eigenvalues --    0.62115   0.62116   0.62117   0.62119   0.62119
 Alpha virt. eigenvalues --    0.62376   0.62377   0.62378   0.62380   0.62381
 Alpha virt. eigenvalues --    0.63449   0.63452   0.63453   0.64315   0.64318
 Alpha virt. eigenvalues --    0.64319   0.64323   0.64910   0.64910   0.64914
 Alpha virt. eigenvalues --    0.64915   0.65082   0.65084   0.65089   0.65756
 Alpha virt. eigenvalues --    0.65759   0.65762   0.65765   0.65851   0.65852
 Alpha virt. eigenvalues --    0.65853   0.65854   0.65855   0.67820   0.67823
 Alpha virt. eigenvalues --    0.67825   0.67911   0.67914   0.67917   0.69304
 Alpha virt. eigenvalues --    0.69308   0.69310   0.69496   0.69498   0.69499
 Alpha virt. eigenvalues --    0.69501   0.69778   0.70232   0.70236   0.70238
 Alpha virt. eigenvalues --    0.70244   0.71543   0.71548   0.71552   0.74858
 Alpha virt. eigenvalues --    0.74861   0.74862   0.74867   0.74869   0.75095
 Alpha virt. eigenvalues --    0.75097   0.75102   0.77039   0.77041   0.77045
 Alpha virt. eigenvalues --    0.77049   0.78294   0.78296   0.78299   0.78305
 Alpha virt. eigenvalues --    0.78311   0.80654   0.80655   0.80658   0.80659
 Alpha virt. eigenvalues --    0.80661   0.80867   0.80869   0.80872   0.80875
 Alpha virt. eigenvalues --    0.81226   0.81227   0.81229   0.81232   0.81236
 Alpha virt. eigenvalues --    0.82962   0.82966   0.82970   0.86117   0.86124
 Alpha virt. eigenvalues --    0.86126   0.89849   0.89851   0.89858   0.89861
 Alpha virt. eigenvalues --    0.91372   0.91374   0.91376   0.91376   0.91382
 Alpha virt. eigenvalues --    0.93563   0.93567   0.93570   0.99770   0.99773
 Alpha virt. eigenvalues --    0.99774   1.00193   1.00204   1.00216   1.00490
 Alpha virt. eigenvalues --    1.00491   1.00494   1.02354   1.02358   1.02365
 Alpha virt. eigenvalues --    1.02366   1.03266   1.03276   1.03279   1.03283
 Alpha virt. eigenvalues --    1.03287   1.04412   1.04538   1.04540   1.04542
 Alpha virt. eigenvalues --    1.04543   1.04545   1.06175   1.06184   1.06184
 Alpha virt. eigenvalues --    1.06189   1.07130   1.07130   1.07132   1.07133
 Alpha virt. eigenvalues --    1.07134   1.12850   1.12850   1.12851   1.13150
 Alpha virt. eigenvalues --    1.13155   1.13159   1.13614   1.13617   1.13621
 Alpha virt. eigenvalues --    1.13625   1.13626   1.14112   1.14114   1.14119
 Alpha virt. eigenvalues --    1.14121   1.15588   1.15595   1.15608   1.16260
 Alpha virt. eigenvalues --    1.16262   1.16266   1.18556   1.18560   1.18566
 Alpha virt. eigenvalues --    1.18572   1.23576   1.23578   1.23581   1.23584
 Alpha virt. eigenvalues --    1.23588   1.23728   1.23730   1.23731   1.23733
 Alpha virt. eigenvalues --    1.25114   1.25115   1.25118   1.25120   1.25121
 Alpha virt. eigenvalues --    1.29652   1.29656   1.29656   1.29667   1.29672
 Alpha virt. eigenvalues --    1.34871   1.34877   1.34880   1.34891   1.34892
 Alpha virt. eigenvalues --    1.36813   1.36817   1.36819   1.37999   1.38000
 Alpha virt. eigenvalues --    1.38002   1.43827   1.43837   1.43843   1.44056
 Alpha virt. eigenvalues --    1.44058   1.44063   1.44066   1.44942   1.44948
 Alpha virt. eigenvalues --    1.44952   1.44956   1.44958   1.49901   1.49911
 Alpha virt. eigenvalues --    1.49923   1.51526   1.51533   1.51548   1.52278
 Alpha virt. eigenvalues --    1.52385   1.52455   1.52457   1.52461   1.52467
 Alpha virt. eigenvalues --    1.55470   1.55475   1.55482   1.55484   1.55487
 Alpha virt. eigenvalues --    1.61249   1.61253   1.61261   1.64439   1.64441
 Alpha virt. eigenvalues --    1.64442   1.64995   1.65000   1.65009   1.65015
 Alpha virt. eigenvalues --    1.67614   1.67616   1.67616   1.69115   1.69551
 Alpha virt. eigenvalues --    1.69553   1.69555   1.69559   1.69619   1.69623
 Alpha virt. eigenvalues --    1.69627   1.69629   1.69630   1.71868   1.71872
 Alpha virt. eigenvalues --    1.71875   1.72082   1.72085   1.72095   1.72096
 Alpha virt. eigenvalues --    1.73413   1.73418   1.73421   1.73424   1.73426
 Alpha virt. eigenvalues --    1.74929   1.74930   1.74932   1.74936   1.74943
 Alpha virt. eigenvalues --    1.78813   1.78818   1.78827   1.78828   1.78836
 Alpha virt. eigenvalues --    1.78982   1.78988   1.78991   1.78992   1.81435
 Alpha virt. eigenvalues --    1.81438   1.81446   1.85704   1.85707   1.85712
 Alpha virt. eigenvalues --    1.85718   1.88188   1.88191   1.88195   1.88201
 Alpha virt. eigenvalues --    1.88205   1.91147   1.91156   1.91158   1.93679
 Alpha virt. eigenvalues --    1.93682   1.93693   1.95346   1.95364   1.95364
 Alpha virt. eigenvalues --    1.96496   1.96503   1.96512   1.96516   1.96519
 Alpha virt. eigenvalues --    1.97741   1.97743   1.97746   1.97759   1.97765
 Alpha virt. eigenvalues --    1.98257   1.98268   1.98272   1.98285   1.98536
 Alpha virt. eigenvalues --    1.98539   1.98544   1.98781   1.98790   1.98793
 Alpha virt. eigenvalues --    1.98798   2.00252   2.00274   2.00285   2.01671
 Alpha virt. eigenvalues --    2.01674   2.01678   2.01680   2.02429   2.02433
 Alpha virt. eigenvalues --    2.02436   2.02439   2.02445   2.06607   2.06615
 Alpha virt. eigenvalues --    2.06627   2.06760   2.06768   2.06774   2.06784
 Alpha virt. eigenvalues --    2.06786   2.11965   2.11969   2.11980   2.16068
 Alpha virt. eigenvalues --    2.16071   2.16082   2.16088   2.16097   2.20857
 Alpha virt. eigenvalues --    2.20859   2.20864   2.20869   2.20870   2.20950
 Alpha virt. eigenvalues --    2.20958   2.20962   2.25363   2.25373   2.25380
 Alpha virt. eigenvalues --    2.25383   2.25392   2.28407   2.28409   2.28414
 Alpha virt. eigenvalues --    2.28418   2.28902   2.28908   2.28911   2.28914
 Alpha virt. eigenvalues --    2.29870   2.29874   2.29893   2.30505   2.30510
 Alpha virt. eigenvalues --    2.30513   2.30518   2.30524   2.35551   2.35559
 Alpha virt. eigenvalues --    2.35562   2.35570   2.35576   2.42283   2.42301
 Alpha virt. eigenvalues --    2.42303   2.43163   2.43166   2.43172   2.43176
 Alpha virt. eigenvalues --    2.43881   2.43883   2.43889   2.43893   2.44514
 Alpha virt. eigenvalues --    2.44515   2.44526   2.47264   2.47282   2.47290
 Alpha virt. eigenvalues --    2.47595   2.47598   2.47601   2.47608   2.47615
 Alpha virt. eigenvalues --    2.51599   2.51601   2.51612   2.54496   2.54506
 Alpha virt. eigenvalues --    2.54511   2.58307   2.58313   2.58315   2.58324
 Alpha virt. eigenvalues --    2.58329   2.58586   2.58591   2.58596   2.58598
 Alpha virt. eigenvalues --    2.58604   2.61095   2.61099   2.61114   2.62040
 Alpha virt. eigenvalues --    2.62045   2.62048   2.62054   2.62057   2.63352
 Alpha virt. eigenvalues --    2.63358   2.63362   2.65705   2.65709   2.65720
 Alpha virt. eigenvalues --    2.65722   2.65729   2.69747   2.69751   2.69752
 Alpha virt. eigenvalues --    2.69757   2.70861   2.70867   2.70871   2.70872
 Alpha virt. eigenvalues --    2.72605   2.72608   2.72615   2.74520   2.74525
 Alpha virt. eigenvalues --    2.74537   2.74546   2.79606   2.79611   2.79615
 Alpha virt. eigenvalues --    2.79620   2.79628   2.82014   2.82017   2.82026
 Alpha virt. eigenvalues --    2.83198   2.83209   2.83215   2.83221   2.83227
 Alpha virt. eigenvalues --    2.84354   2.84358   2.84365   2.85476   2.85481
 Alpha virt. eigenvalues --    2.85487   2.85491   2.85499   2.87522   2.87526
 Alpha virt. eigenvalues --    2.87531   2.90726   2.90731   2.90738   2.90739
 Alpha virt. eigenvalues --    2.94003   2.95495   2.95502   2.95504   2.95515
 Alpha virt. eigenvalues --    2.95516   2.99450   2.99458   2.99460   2.99471
 Alpha virt. eigenvalues --    3.00440   3.00447   3.00451   3.08238   3.08244
 Alpha virt. eigenvalues --    3.08249   3.08258   3.11190   3.11196   3.11198
 Alpha virt. eigenvalues --    3.11213   3.20402   3.20420   3.20430   3.26238
 Alpha virt. eigenvalues --    3.26251   3.26261   3.26266   3.26271   3.38436
 Alpha virt. eigenvalues --    3.38440   3.38444   3.38451   3.47290   3.47304
 Alpha virt. eigenvalues --    3.47317   3.52851   3.52857   3.52862   3.61972
 Alpha virt. eigenvalues --    4.02267   4.03324   4.03332   4.03336   4.05534
 Alpha virt. eigenvalues --    4.05539   4.05542   4.05545   4.05548   4.10286
 Alpha virt. eigenvalues --    4.10289   4.10292   4.13264   4.13266   4.13279
 Alpha virt. eigenvalues --    4.13298   4.19857   4.19858   4.19860   4.19864
 Alpha virt. eigenvalues --    4.19865   4.24935   4.24939   4.24944   4.24952
 Alpha virt. eigenvalues --    4.33451   4.33457   4.33458   4.38049   4.38054
 Alpha virt. eigenvalues --    4.38056   4.38059   4.38063   4.49903   4.49906
 Alpha virt. eigenvalues --    4.49911   4.57174   4.57178   4.57192   4.65139
 Alpha virt. eigenvalues --    4.65141   4.65144   4.65150   4.65152   4.81479
 Alpha virt. eigenvalues --    4.81489   4.81499   4.81507   4.91329   4.91333
 Alpha virt. eigenvalues --    4.91342   4.91351   4.91356   5.12025   5.12032
 Alpha virt. eigenvalues --    5.12038   5.12044   5.27064   5.27070   5.27082
          Condensed to atoms (all electrons):
 Mulliken atomic charges:
              1
     1  C   -0.000018
     2  C   -0.000025
     3  C   -0.000011
     4  C    0.000173
     5  C   -0.000147
     6  C    0.000173
     7  C   -0.000405
     8  C    0.000195
     9  C    0.000177
    10  C    0.000048
    11  C   -0.000170
    12  C    0.000131
    13  C   -0.000317
    14  C    0.000172
    15  C    0.000114
    16  C   -0.000138
    17  C    0.000005
    18  C   -0.000114
    19  C    0.000263
    20  C   -0.000108
    21  C   -0.000059
    22  C    0.000037
    23  C   -0.000197
    24  C    0.000055
    25  C    0.000137
    26  C   -0.000132
    27  C    0.000093
    28  C   -0.000097
    29  C    0.000188
    30  C   -0.000370
    31  C    0.000206
    32  C   -0.000138
    33  C    0.000041
    34  C    0.000059
    35  C    0.000019
    36  C    0.000100
    37  C    0.000130
    38  C   -0.000053
    39  C   -0.000097
    40  C    0.000093
    41  C    0.000013
    42  C    0.000173
    43  C   -0.000135
    44  C   -0.000073
    45  C    0.000091
    46  C   -0.000228
    47  C    0.000228
    48  C   -0.000027
    49  C    0.000092
    50  C   -0.000016
    51  C   -0.000156
    52  C    0.000167
    53  C    0.000095
    54  C   -0.000302
    55  C    0.000184
    56  C   -0.000088
    57  C    0.000096
    58  C   -0.000200
    59  C   -0.000040
    60  C    0.000111
 Sum of Mulliken atomic charges =   0.00000
 Mulliken charges with hydrogens summed into heavy atoms:
              1
     1  C   -0.000018
     2  C   -0.000025
     3  C   -0.000011
     4  C    0.000173
     5  C   -0.000147
     6  C    0.000173
     7  C   -0.000405
     8  C    0.000195
     9  C    0.000177
    10  C    0.000048
    11  C   -0.000170
    12  C    0.000131
    13  C   -0.000317
    14  C    0.000172
    15  C    0.000114
    16  C   -0.000138
    17  C    0.000005
    18  C   -0.000114
    19  C    0.000263
    20  C   -0.000108
    21  C   -0.000059
    22  C    0.000037
    23  C   -0.000197
    24  C    0.000055
    25  C    0.000137
    26  C   -0.000132
    27  C    0.000093
    28  C   -0.000097
    29  C    0.000188
    30  C   -0.000370
    31  C    0.000206
    32  C   -0.000138
    33  C    0.000041
    34  C    0.000059
    35  C    0.000019
    36  C    0.000100
    37  C    0.000130
    38  C   -0.000053
    39  C   -0.000097
    40  C    0.000093
    41  C    0.000013
    42  C    0.000173
    43  C   -0.000135
    44  C   -0.000073
    45  C    0.000091
    46  C   -0.000228
    47  C    0.000228
    48  C   -0.000027
    49  C    0.000092
    50  C   -0.000016
    51  C   -0.000156
    52  C    0.000167
    53  C    0.000095
    54  C   -0.000302
    55  C    0.000184
    56  C   -0.000088
    57  C    0.000096
    58  C   -0.000200
    59  C   -0.000040
    60  C    0.000111
 Sum of Mulliken charges with hydrogens summed into heavy atoms =   0.00000
chelpg:
 Fitting point charges to electrostatic potential
 Charges from ESP fit, RMS=   0.00964 RRMS=   0.80637:
 Charge=   0.00000 Dipole=    -0.7637    -0.0960     0.0001 Tot=     0.7697
              1
     1  C    0.542652
     2  C   -0.142672
     3  C    0.039841
     4  C    0.066677
     5  C    0.127047
     6  C   -0.452741
     7  C   -0.369677
     8  C    0.228718
     9  C   -0.201088
    10  C    0.264956
    11  C   -0.010705
    12  C   -0.318629
    13  C    0.270973
    14  C   -0.165180
    15  C    0.080431
    16  C   -0.127507
    17  C    0.280206
    18  C   -0.304015
    19  C    0.297397
    20  C   -0.135061
    21  C   -0.030265
    22  C   -0.083018
    23  C    0.059866
    24  C    0.056665
    25  C    0.033699
    26  C    0.095660
    27  C   -0.184262
    28  C    0.142447
    29  C    0.164773
    30  C   -0.018568
    31  C   -0.027980
    32  C    0.060141
    33  C   -0.122606
    34  C    0.062823
    35  C    0.217566
    36  C   -0.345917
    37  C    0.184571
    38  C   -0.150638
    39  C   -0.068629
    40  C    0.070156
    41  C    0.034714
    42  C   -0.033107
    43  C   -0.064538
    44  C    0.149065
    45  C   -0.006054
    46  C   -0.031494
    47  C    0.083470
    48  C   -0.297097
    49  C    0.404345
    50  C   -0.399937
    51  C    0.467229
    52  C   -0.160906
    53  C   -0.067685
    54  C    0.202005
    55  C   -0.137389
    56  C    0.119099
    57  C   -0.123280
    58  C   -0.107855
    59  C   -0.064944
    60  C   -0.053745

 Electronic spatial extent (au):  <R**2>=          16923.0489
 Charge=              0.0000 electrons
 Dipole moment (field-independent basis, Debye):
    X=             -0.0002    Y=             -0.0003    Z=              0.0001  Tot=              0.0004
 Quadrupole moment (field-independent basis, Debye-Ang):
   XX=           -324.1164   YY=           -324.1125   ZZ=           -324.1098
   XY=              0.0047   XZ=             -0.0022   YZ=              0.0021
 Traceless Quadrupole moment (field-independent basis, Debye-Ang):
   XX=             -0.0035   YY=              0.0004   ZZ=              0.0031
   XY=              0.0047   XZ=             -0.0022   YZ=              0.0021
 Octapole moment (field-independent basis, Debye-Ang**2):
  XXX=              8.2951  YYY=             -6.6331  ZZZ=             -0.6340  XYY=              2.7647
  XXY=             -2.2083  XXZ=             -0.2040  XZZ=              2.7697  YZZ=             -2.2123
  YYZ=             -0.2064  XYZ=             -0.0010
 Hexadecapole moment (field-independent basis, Debye-Ang**3):
 XXXX=          -8515.6692 YYYY=          -8515.3268 ZZZZ=          -8516.2229 XXXY=              0.2449
 XXXZ=             -0.5318 YYYX=              0.2636 YYYZ=              0.2778 ZZZX=             -0.4794
 ZZZY=              0.2631 XXYY=          -2838.4801 XXZZ=          -2838.6617 YYZZ=          -2838.5953
 XXYZ=              0.1062 YYXZ=             -0.1627 ZZXY=              0.1106
 N-N= 8.327081487443D+03 E-N=-2.194528852183D+04  KE= 2.264963806193D+03
 Leave Link  601 at Mon Mar 18 22:41:57 2013, MaxMem= 1441792000 cpu:       3.4
 (Enter /apps/gaussian/g09_c01/g09/l9999.exe)
 1\1\GINC-CX1-7-7-1\SP\RB3LYP TD-FC\6-31G(d)\C60\SPF310\18-Mar-2013\0\\
 #p Geom=AllCheck nosymm B3LYP/6-31g* Guess=Read td(singlets,nstates=12
 )\\C60 neutral\\0,1\C,0,-1.18308379,-0.3754869462,3.3289045238\C,0,-0.
 7356765019,1.0072723531,3.3281078939\C,0,-1.4348917542,1.9666365872,2.
 5944327417\C,0,-2.6101092263,1.5825608491,1.8303062153\C,0,-3.03967181
 05,0.2549395805,1.8308736616\C,0,-2.3112318023,-0.7438838343,2.5948189
 473\C,0,-0.0062536773,-1.228402919,3.3287303264\C,0,1.1685764713,-0.37
 27900503,3.328439027\C,0,0.7177382158,1.0087862894,3.3273034159\C,0,1.
 4139980636,1.9698505091,2.5934661187\C,0,-0.7095661476,2.9675207867,1.
 8298110087\C,0,-2.6110390552,2.3460239194,0.5936797878\C,0,-3.04264870
 18,1.7519388755,-0.5930333008\C,0,-3.4899201126,0.3690536737,-0.592447
 7346\C,0,-3.488569436,-0.3642924222,0.5949369514\C,0,-3.0371751657,-1.
 7455458744,0.5953603522\C,0,-2.3103717158,-1.9807263741,1.8318520977\C
 ,0,-1.1804236028,-2.7995452463,1.8318988464\C,0,-0.0050158658,-2.41571
 23943,2.5955731288\C,0,2.2981108598,-0.7385743062,2.5948904763\C,0,2.2
 994063767,-1.9750182623,1.8310373596\C,0,1.1712981759,-2.7965876351,1.
 8314963759\C,0,0.7225258738,-3.4157780058,0.5954309408\C,0,-0.73083804
 99,-3.4173254917,0.5954595023\C,0,-1.4288025626,-3.1914995238,-0.59144
 99771\C,0,-2.6058416715,-2.3389226849,-0.5915942607\C,0,-2.6075443473,
 -1.5756063526,-1.8283553259\C,0,-3.0403405047,-0.2488798349,-1.8286932
 757\C,0,-1.4366033645,3.2018371714,0.5931951538\C,0,-0.0108721176,1.24
 2029379,-3.3273937322\C,0,-0.0121652917,2.4292735376,-2.5942716492\C,0
 ,1.1634039639,2.8132406077,-1.8306313309\C,0,2.293223924,1.9943050548,
 -1.8304245183\C,0,2.2943992423,0.7575971473,-2.5939120439\C,0,0.718648
 7586,-0.9936298968,-3.3268802139\C,0,-0.7347903264,-0.995228655,-3.326
 0949521\C,0,-1.1856906791,0.3864414632,-3.3271550858\C,0,-2.3151518866
 ,0.7522086854,-2.5935524476\C,0,-2.3165726739,1.9886448175,-1.82970495
 15\C,0,-1.188353026,2.8101973758,-1.8301123994\C,0,0.7138350434,3.4308
 92081,-0.5942329794\C,0,1.4118254014,3.2051216079,0.5927463747\C,0,2.5
 886313318,2.3525533037,0.5928224636\C,0,3.0199967699,1.7593039375,-0.5
 941082995\C,0,3.4713880384,0.3778343924,-0.5936409185\C,0,3.0227373496
 ,-0.2412856669,-1.8297035998\C,0,2.5930747261,-1.5689239682,-1.8289622
 56\C,0,1.4178166793,-1.9529660378,-2.5931399576\C,0,-1.4310286,-1.9560
 992303,-2.5920973528\C,0,-0.7029784268,-2.955444636,-1.8282282385\C,0,
 0.6925465729,-2.953836718,-1.8284376835\C,0,1.4195540236,-3.1883021868
 ,-0.5919217538\C,0,2.5940565119,-2.3323711488,-0.5924189704\C,0,3.0254
 433114,-1.7382604532,0.594279935\C,0,3.4727783707,-0.3554111138,0.5937
 293467\C,0,3.0232049373,0.2625457224,1.8300517894\C,0,2.5904015797,1.5
 892247556,1.8297567745\C,0,-0.7395661302,3.429394636,-0.5941952278\C,0
 ,0.6859394246,2.9691550158,1.8296095822\C,0,1.1660362066,0.3890732146,
 -3.3274343219\\Version=EM64L-G09RevC.01\HF=-2286.1739299\RMSD=6.615e-0
 9\PG=C01 [X(C60)]\\@


 SATCHEL PAIGE'S GUIDE TO LONGEVITY

    1.  AVOID FRIED MEATS, WHICH ANGRY UP THE BLOOD.

    2.  IF YOUR STOMACH DISPUTES YOU, LIE DOWN AND PACIFY IT WITH COOL
        THOUGHTS.

    3.  KEEP THE JUICES FLOWING BY JANGLING AROUND GENTLY AS YOU MOVE.

    4.  GO VERY LIGHT ON THE VICES, SUCH AS CARRYING ON IN SOCIETY.
        THE SOCIAL RUMBLE AIN'T RESTFUL.

    5.  AVOID RUNNING AT ALL TIMES.

    6.  DON'T LOOK BACK.  SOMETHING MAY BE GAINING ON YOU.
 Job cpu time:  1 days  6 hours  0 minutes  7.8 seconds.
 File lengths (MBytes):  RWF=   2202 Int=      0 D2E=      0 Chk=    367 Scr=      1
 Normal termination of Gaussian 09 at Mon Mar 18 22:41:57 2013.
