 Entering Gaussian System, Link 0=g09
 Input=c60_HF_6-31PLUSgSTAR_2014_02_11.gjf
 Output=c60_HF_6-31PLUSgSTAR_2014_02_11.log
 Initial command:
 /apps/gaussian/g09_c01/g09/l1.exe /tmp/pbs.6495743.cx1b/Gau-30936.inp -scrdir=/tmp/pbs.6495743.cx1b/
 Entering Link 1 = /apps/gaussian/g09_c01/g09/l1.exe PID=     30944.
  
 Copyright (c) 1988,1990,1992,1993,1995,1998,2003,2009,2011,
            Gaussian, Inc.  All Rights Reserved.
  
 This is part of the Gaussian(R) 09 program.  It is based on
 the Gaussian(R) 03 system (copyright 2003, Gaussian, Inc.),
 the Gaussian(R) 98 system (copyright 1998, Gaussian, Inc.),
 the Gaussian(R) 94 system (copyright 1995, Gaussian, Inc.),
 the Gaussian 92(TM) system (copyright 1992, Gaussian, Inc.),
 the Gaussian 90(TM) system (copyright 1990, Gaussian, Inc.),
 the Gaussian 88(TM) system (copyright 1988, Gaussian, Inc.),
 the Gaussian 86(TM) system (copyright 1986, Carnegie Mellon
 University), and the Gaussian 82(TM) system (copyright 1983,
 Carnegie Mellon University). Gaussian is a federally registered
 trademark of Gaussian, Inc.
  
 This software contains proprietary and confidential information,
 including trade secrets, belonging to Gaussian, Inc.
  
 This software is provided under written license and may be
 used, copied, transmitted, or stored only in accord with that
 written license.
  
 The following legend is applicable only to US Government
 contracts under FAR:
  
                    RESTRICTED RIGHTS LEGEND
  
 Use, reproduction and disclosure by the US Government is
 subject to restrictions as set forth in subparagraphs (a)
 and (c) of the Commercial Computer Software - Restricted
 Rights clause in FAR 52.227-19.
  
 Gaussian, Inc.
 340 Quinnipiac St., Bldg. 40, Wallingford CT 06492
  
  
 ---------------------------------------------------------------
 Warning -- This program may not be used in any manner that
 competes with the business of Gaussian, Inc. or will provide
 assistance to any competitor of Gaussian, Inc.  The licensee
 of this program is prohibited from giving any competitor of
 Gaussian, Inc. access to this program.  By using this program,
 the user acknowledges that Gaussian, Inc. is engaged in the
 business of creating and licensing software in the field of
 computational chemistry and represents and warrants to the
 licensee that it is not a competitor of Gaussian, Inc. and that
 it will not use this program in any manner prohibited above.
 ---------------------------------------------------------------
  

 Cite this work as:
 Gaussian 09, Revision C.01,
 M. J. Frisch, G. W. Trucks, H. B. Schlegel, G. E. Scuseria, 
 M. A. Robb, J. R. Cheeseman, G. Scalmani, V. Barone, B. Mennucci, 
 G. A. Petersson, H. Nakatsuji, M. Caricato, X. Li, H. P. Hratchian, 
 A. F. Izmaylov, J. Bloino, G. Zheng, J. L. Sonnenberg, M. Hada, 
 M. Ehara, K. Toyota, R. Fukuda, J. Hasegawa, M. Ishida, T. Nakajima, 
 Y. Honda, O. Kitao, H. Nakai, T. Vreven, J. A. Montgomery, Jr., 
 J. E. Peralta, F. Ogliaro, M. Bearpark, J. J. Heyd, E. Brothers, 
 K. N. Kudin, V. N. Staroverov, T. Keith, R. Kobayashi, J. Normand, 
 K. Raghavachari, A. Rendell, J. C. Burant, S. S. Iyengar, J. Tomasi, 
 M. Cossi, N. Rega, J. M. Millam, M. Klene, J. E. Knox, J. B. Cross, 
 V. Bakken, C. Adamo, J. Jaramillo, R. Gomperts, R. E. Stratmann, 
 O. Yazyev, A. J. Austin, R. Cammi, C. Pomelli, J. W. Ochterski, 
 R. L. Martin, K. Morokuma, V. G. Zakrzewski, G. A. Voth, 
 P. Salvador, J. J. Dannenberg, S. Dapprich, A. D. Daniels, 
 O. Farkas, J. B. Foresman, J. V. Ortiz, J. Cioslowski, 
 and D. J. Fox, Gaussian, Inc., Wallingford CT, 2010.
 
 ******************************************
 Gaussian 09:  EM64L-G09RevC.01 23-Sep-2011
                12-Feb-2014 
 ******************************************
 %chk=c60_HF_6-31PLUSgSTAR_2014_02_11.chk
 %mem=63000Mb
 %nprocshared=12
 Will use up to   12 processors via shared memory.
 ----------------------------------------
 #p HF/6-31+g* sp nosymm pop=chelpg polar
 ----------------------------------------
 1/38=1/1;
 2/12=2,15=1,17=6,18=5,40=1/2;
 3/5=1,6=6,7=11,11=9,16=1,25=1,30=1/1,2,3;
 4//1;
 5/5=2,38=5,98=1/2;
 8/6=4,10=90,11=11/1;
 10/6=1,13=10,31=1/2;
 6/7=2,8=2,9=2,10=2,15=8,20=3,28=1/1,2;
 99/5=1,9=1/99;
 Leave Link    1 at Wed Feb 12 05:50:46 2014, MaxMem= 8257536000 cpu:       0.3
 (Enter /apps/gaussian/g09_c01/g09/l101.exe)
 --------------
 6-31+g* HF c60
 --------------
 Charge =  0 Multiplicity = 1
 Symbolic Z-Matrix:
 C                    -1.18308  -0.37549   3.32891 
 C                    -0.73568   1.00727   3.32811 
 C                    -1.43489   1.96664   2.59443 
 C                    -2.61011   1.58256   1.83031 
 C                    -3.03967   0.25494   1.83087 
 C                    -2.31123  -0.74388   2.59482 
 C                    -0.00625  -1.2284    3.32873 
 C                     1.16858  -0.37279   3.32844 
 C                     0.71774   1.00879   3.3273 
 C                     1.414     1.96985   2.59347 
 C                    -0.70957   2.96752   1.82981 
 C                    -2.61104   2.34602   0.59368 
 C                    -3.04265   1.75194  -0.59303 
 C                    -3.48992   0.36905  -0.59245 
 C                    -3.48857  -0.36429   0.59494 
 C                    -3.03717  -1.74555   0.59536 
 C                    -2.31037  -1.98073   1.83185 
 C                    -1.18042  -2.79955   1.8319 
 C                    -0.00502  -2.41571   2.59557 
 C                     2.29811  -0.73857   2.59489 
 C                     2.29941  -1.97502   1.83104 
 C                     1.1713   -2.79659   1.8315 
 C                     0.72253  -3.41578   0.59543 
 C                    -0.73084  -3.41732   0.59546 
 C                    -1.4288   -3.1915   -0.59145 
 C                    -2.60584  -2.33892  -0.59159 
 C                    -2.60754  -1.57561  -1.82836 
 C                    -3.04034  -0.24888  -1.82869 
 C                    -1.4366    3.20184   0.5932 
 C                    -0.01087   1.24203  -3.32739 
 C                    -0.01217   2.42927  -2.59427 
 C                     1.1634    2.81324  -1.83063 
 C                     2.29322   1.99431  -1.83043 
 C                     2.2944    0.7576   -2.59391 
 C                     0.71865  -0.99363  -3.32688 
 C                    -0.73479  -0.99523  -3.3261 
 C                    -1.18569   0.38644  -3.32716 
 C                    -2.31515   0.75221  -2.59355 
 C                    -2.31657   1.98865  -1.82971 
 C                    -1.18835   2.8102   -1.83011 
 C                     0.71384   3.43089  -0.59423 
 C                     1.41183   3.20512   0.59275 
 C                     2.58863   2.35255   0.59282 
 C                     3.02      1.7593   -0.59411 
 C                     3.47139   0.37783  -0.59364 
 C                     3.02274  -0.24129  -1.8297 
 C                     2.59308  -1.56892  -1.82896 
 C                     1.41782  -1.95297  -2.59314 
 C                    -1.43103  -1.9561   -2.5921 
 C                    -0.70298  -2.95545  -1.82823 
 C                     0.69255  -2.95384  -1.82844 
 C                     1.41955  -3.1883   -0.59192 
 C                     2.59406  -2.33237  -0.59242 
 C                     3.02544  -1.73826   0.59428 
 C                     3.47278  -0.35541   0.59373 
 C                     3.0232    0.26255   1.83005 
 C                     2.5904    1.58923   1.82976 
 C                    -0.73957   3.42939  -0.5942 
 C                     0.68594   2.96916   1.82961 
 C                     1.16604   0.38907  -3.32743 
 
 NAtoms=     60 NQM=        0 NQMF=       0 NMMI=     60 NMMIF=      0
                NMic=       0 NMicF=      0.
                    Isotopes and Nuclear Properties:
 (Nuclear quadrupole moments (NQMom) in fm**2, nuclear magnetic moments (NMagM)
  in nuclear magnetons)

  Atom         1           2           3           4           5           6           7           8           9          10
 IAtWgt=          12          12          12          12          12          12          12          12          12          12
 AtmWgt=  12.0000000  12.0000000  12.0000000  12.0000000  12.0000000  12.0000000  12.0000000  12.0000000  12.0000000  12.0000000
 NucSpn=           0           0           0           0           0           0           0           0           0           0
 AtZEff=   0.0000000   0.0000000   0.0000000   0.0000000   0.0000000   0.0000000   0.0000000   0.0000000   0.0000000   0.0000000
 NQMom=    0.0000000   0.0000000   0.0000000   0.0000000   0.0000000   0.0000000   0.0000000   0.0000000   0.0000000   0.0000000
 NMagM=    0.0000000   0.0000000   0.0000000   0.0000000   0.0000000   0.0000000   0.0000000   0.0000000   0.0000000   0.0000000

  Atom        11          12          13          14          15          16          17          18          19          20
 IAtWgt=          12          12          12          12          12          12          12          12          12          12
 AtmWgt=  12.0000000  12.0000000  12.0000000  12.0000000  12.0000000  12.0000000  12.0000000  12.0000000  12.0000000  12.0000000
 NucSpn=           0           0           0           0           0           0           0           0           0           0
 AtZEff=   0.0000000   0.0000000   0.0000000   0.0000000   0.0000000   0.0000000   0.0000000   0.0000000   0.0000000   0.0000000
 NQMom=    0.0000000   0.0000000   0.0000000   0.0000000   0.0000000   0.0000000   0.0000000   0.0000000   0.0000000   0.0000000
 NMagM=    0.0000000   0.0000000   0.0000000   0.0000000   0.0000000   0.0000000   0.0000000   0.0000000   0.0000000   0.0000000

  Atom        21          22          23          24          25          26          27          28          29          30
 IAtWgt=          12          12          12          12          12          12          12          12          12          12
 AtmWgt=  12.0000000  12.0000000  12.0000000  12.0000000  12.0000000  12.0000000  12.0000000  12.0000000  12.0000000  12.0000000
 NucSpn=           0           0           0           0           0           0           0           0           0           0
 AtZEff=   0.0000000   0.0000000   0.0000000   0.0000000   0.0000000   0.0000000   0.0000000   0.0000000   0.0000000   0.0000000
 NQMom=    0.0000000   0.0000000   0.0000000   0.0000000   0.0000000   0.0000000   0.0000000   0.0000000   0.0000000   0.0000000
 NMagM=    0.0000000   0.0000000   0.0000000   0.0000000   0.0000000   0.0000000   0.0000000   0.0000000   0.0000000   0.0000000

  Atom        31          32          33          34          35          36          37          38          39          40
 IAtWgt=          12          12          12          12          12          12          12          12          12          12
 AtmWgt=  12.0000000  12.0000000  12.0000000  12.0000000  12.0000000  12.0000000  12.0000000  12.0000000  12.0000000  12.0000000
 NucSpn=           0           0           0           0           0           0           0           0           0           0
 AtZEff=   0.0000000   0.0000000   0.0000000   0.0000000   0.0000000   0.0000000   0.0000000   0.0000000   0.0000000   0.0000000
 NQMom=    0.0000000   0.0000000   0.0000000   0.0000000   0.0000000   0.0000000   0.0000000   0.0000000   0.0000000   0.0000000
 NMagM=    0.0000000   0.0000000   0.0000000   0.0000000   0.0000000   0.0000000   0.0000000   0.0000000   0.0000000   0.0000000

  Atom        41          42          43          44          45          46          47          48          49          50
 IAtWgt=          12          12          12          12          12          12          12          12          12          12
 AtmWgt=  12.0000000  12.0000000  12.0000000  12.0000000  12.0000000  12.0000000  12.0000000  12.0000000  12.0000000  12.0000000
 NucSpn=           0           0           0           0           0           0           0           0           0           0
 AtZEff=   0.0000000   0.0000000   0.0000000   0.0000000   0.0000000   0.0000000   0.0000000   0.0000000   0.0000000   0.0000000
 NQMom=    0.0000000   0.0000000   0.0000000   0.0000000   0.0000000   0.0000000   0.0000000   0.0000000   0.0000000   0.0000000
 NMagM=    0.0000000   0.0000000   0.0000000   0.0000000   0.0000000   0.0000000   0.0000000   0.0000000   0.0000000   0.0000000

  Atom        51          52          53          54          55          56          57          58          59          60
 IAtWgt=          12          12          12          12          12          12          12          12          12          12
 AtmWgt=  12.0000000  12.0000000  12.0000000  12.0000000  12.0000000  12.0000000  12.0000000  12.0000000  12.0000000  12.0000000
 NucSpn=           0           0           0           0           0           0           0           0           0           0
 AtZEff=   0.0000000   0.0000000   0.0000000   0.0000000   0.0000000   0.0000000   0.0000000   0.0000000   0.0000000   0.0000000
 NQMom=    0.0000000   0.0000000   0.0000000   0.0000000   0.0000000   0.0000000   0.0000000   0.0000000   0.0000000   0.0000000
 NMagM=    0.0000000   0.0000000   0.0000000   0.0000000   0.0000000   0.0000000   0.0000000   0.0000000   0.0000000   0.0000000
 Leave Link  101 at Wed Feb 12 05:50:46 2014, MaxMem= 8257536000 cpu:       0.8
 (Enter /apps/gaussian/g09_c01/g09/l202.exe)
 Symmetry turned off by external request.
 Stoichiometry    C60
 Framework group  C1[X(C60)]
 Deg. of freedom   174
 Full point group                 C1      NOp   1
                          Input orientation:                          
 ---------------------------------------------------------------------
 Center     Atomic      Atomic             Coordinates (Angstroms)
 Number     Number       Type             X           Y           Z
 ---------------------------------------------------------------------
      1          6           0       -1.183084   -0.375487    3.328905
      2          6           0       -0.735677    1.007272    3.328108
      3          6           0       -1.434892    1.966637    2.594433
      4          6           0       -2.610109    1.582561    1.830306
      5          6           0       -3.039672    0.254940    1.830874
      6          6           0       -2.311232   -0.743884    2.594819
      7          6           0       -0.006254   -1.228403    3.328730
      8          6           0        1.168576   -0.372790    3.328439
      9          6           0        0.717738    1.008786    3.327303
     10          6           0        1.413998    1.969851    2.593466
     11          6           0       -0.709566    2.967521    1.829811
     12          6           0       -2.611039    2.346024    0.593680
     13          6           0       -3.042649    1.751939   -0.593033
     14          6           0       -3.489920    0.369054   -0.592448
     15          6           0       -3.488569   -0.364292    0.594937
     16          6           0       -3.037175   -1.745546    0.595360
     17          6           0       -2.310372   -1.980726    1.831852
     18          6           0       -1.180424   -2.799545    1.831899
     19          6           0       -0.005016   -2.415712    2.595573
     20          6           0        2.298111   -0.738574    2.594890
     21          6           0        2.299406   -1.975018    1.831037
     22          6           0        1.171298   -2.796588    1.831496
     23          6           0        0.722526   -3.415778    0.595431
     24          6           0       -0.730838   -3.417325    0.595460
     25          6           0       -1.428803   -3.191500   -0.591450
     26          6           0       -2.605842   -2.338923   -0.591594
     27          6           0       -2.607544   -1.575606   -1.828355
     28          6           0       -3.040341   -0.248880   -1.828693
     29          6           0       -1.436603    3.201837    0.593195
     30          6           0       -0.010872    1.242029   -3.327394
     31          6           0       -0.012165    2.429274   -2.594272
     32          6           0        1.163404    2.813241   -1.830631
     33          6           0        2.293224    1.994305   -1.830425
     34          6           0        2.294399    0.757597   -2.593912
     35          6           0        0.718649   -0.993630   -3.326880
     36          6           0       -0.734790   -0.995229   -3.326095
     37          6           0       -1.185691    0.386441   -3.327155
     38          6           0       -2.315152    0.752209   -2.593552
     39          6           0       -2.316573    1.988645   -1.829705
     40          6           0       -1.188353    2.810197   -1.830112
     41          6           0        0.713835    3.430892   -0.594233
     42          6           0        1.411825    3.205122    0.592746
     43          6           0        2.588631    2.352553    0.592822
     44          6           0        3.019997    1.759304   -0.594108
     45          6           0        3.471388    0.377834   -0.593641
     46          6           0        3.022737   -0.241286   -1.829704
     47          6           0        2.593075   -1.568924   -1.828962
     48          6           0        1.417817   -1.952966   -2.593140
     49          6           0       -1.431029   -1.956099   -2.592097
     50          6           0       -0.702978   -2.955445   -1.828228
     51          6           0        0.692547   -2.953837   -1.828438
     52          6           0        1.419554   -3.188302   -0.591922
     53          6           0        2.594057   -2.332371   -0.592419
     54          6           0        3.025443   -1.738260    0.594280
     55          6           0        3.472778   -0.355411    0.593729
     56          6           0        3.023205    0.262546    1.830052
     57          6           0        2.590402    1.589225    1.829757
     58          6           0       -0.739566    3.429395   -0.594195
     59          6           0        0.685939    2.969155    1.829610
     60          6           0        1.166036    0.389073   -3.327434
 ---------------------------------------------------------------------
 Rotational constants (GHZ):      0.0835600      0.0835499      0.0835488
 Leave Link  202 at Wed Feb 12 05:50:46 2014, MaxMem= 8257536000 cpu:       0.0
 (Enter /apps/gaussian/g09_c01/g09/l301.exe)
 Standard basis: 6-31+G(d) (6D, 7F)
 Ernie: Thresh=  0.10000D-02 Tol=  0.10000D-05 Strict=F.
 Integral buffers will be    131072 words long.
 Raffenetti 1 integral format.
 Two-electron integral symmetry is turned off.
  1140 basis functions,  1920 primitive gaussians,  1140 cartesian basis functions
   180 alpha electrons      180 beta electrons
       nuclear repulsion energy      8327.0814950630 Hartrees.
 IExCor=    0 DFT=F Ex=HF Corr=None ExCW=0 ScaHFX=  1.000000
 ScaDFX=  1.000000  1.000000  1.000000  1.000000 ScalE2=  1.000000  1.000000
 IRadAn=      0 IRanWt=     -1 IRanGd=            0 ICorTp=0
 NAtoms=   60 NActive=   60 NUniq=   60 SFac= 1.00D+00 NAtFMM=   60 NAOKFM=T Big=T
 Leave Link  301 at Wed Feb 12 05:50:46 2014, MaxMem= 8257536000 cpu:       0.7
 (Enter /apps/gaussian/g09_c01/g09/l302.exe)
 NPDir=0 NMtPBC=     1 NCelOv=     1 NCel=       1 NClECP=     1 NCelD=      1
         NCelK=      1 NCelE2=     1 NClLst=     1 CellRange=     0.0.
 One-electron integrals computed using PRISM.
 NBasis=  1140 RedAO= T  NBF=  1140
 NBsUse=  1082 1.00D-06 NBFU=  1082
 Leave Link  302 at Wed Feb 12 05:50:50 2014, MaxMem= 8257536000 cpu:      41.5
 (Enter /apps/gaussian/g09_c01/g09/l303.exe)
 DipDrv:  MaxL=1.
 Leave Link  303 at Wed Feb 12 05:50:50 2014, MaxMem= 8257536000 cpu:       3.1
 (Enter /apps/gaussian/g09_c01/g09/l401.exe)
 Harris functional with IExCor=  205 diagonalized for initial guess.
 ExpMin= 4.38D-02 ExpMax= 3.05D+03 ExpMxC= 4.57D+02 IAcc=2 IRadAn=         4 AccDes= 0.00D+00
 HarFok:  IExCor=  205 AccDes= 0.00D+00 IRadAn=         4 IDoV= 1
 ScaDFX=  1.000000  1.000000  1.000000  1.000000
 FoFCou: FMM=F IPFlag=           0 FMFlag=      100000 FMFlg1=        2001
         NFxFlg=           0 DoJE=T BraDBF=F KetDBF=T FulRan=T
         Omega=  0.000000  0.000000  1.000000  0.000000  0.000000 ICntrl=     500 IOpCl=  0
         NMat0=    1 NMatS0=    1 NMatT0=    0 NMatD0=    1 NMtDS0=    0 NMtDT0=    0
         I1Cent=           4 NGrid=           0.
 Symmetry not used in FoFCou.
 Harris En= -2273.78388168403    
 Leave Link  401 at Wed Feb 12 05:50:57 2014, MaxMem= 8257536000 cpu:      83.2
 (Enter /apps/gaussian/g09_c01/g09/l502.exe)
 Closed shell SCF:
 Requested convergence on RMS density matrix=1.00D-08 within 128 cycles.
 Requested convergence on MAX density matrix=1.00D-06.
 Requested convergence on             energy=1.00D-06.
 No special actions if energy rises.
 Using DIIS extrapolation, IDIIS=  1040.
 Two-electron integral symmetry not used.
 IEnd=     3937586 IEndB=     3937586 NGot=  8257536000 MDV=  8254915795
 LenX=  8254915795 LenY=  8253615055
 Fock matrices will be formed incrementally for  20 cycles.

 Cycle   1  Pass 0  IDiag  1:
 FoFCou: FMM=T IPFlag=           0 FMFlag=      100000 FMFlg1=        2001
         NFxFlg=           0 DoJE=F BraDBF=F KetDBF=F FulRan=T
         Omega=  0.000000  0.000000  1.000000  0.000000  0.000000 ICntrl=       0 IOpCl=  0
         NMat0=    1 NMatS0=    1 NMatT0=    0 NMatD0=    1 NMtDS0=    0 NMtDT0=    0
         I1Cent=           0 NGrid=           0.
 Symmetry not used in FoFCou.
 FMM levels:  10  Number of levels for PrismC:   9
 E= -2270.52749371010    
 DIIS: error= 6.44D-02 at cycle   1 NSaved=   1.
 NSaved= 1 IEnMin= 1 EnMin= -2270.52749371010     IErMin= 1 ErrMin= 6.44D-02
 ErrMax= 6.44D-02 EMaxC= 1.00D-01 BMatC= 2.85D+00 BMatP= 2.85D+00
 IDIUse=3 WtCom= 3.56D-01 WtEn= 6.44D-01
 Coeff-Com:  0.100D+01
 Coeff-En:   0.100D+01
 Coeff:      0.100D+01
 Gap=     0.253 Goal=   None    Shift=    0.000
 GapD=    0.253 DampG=1.000 DampE=0.500 DampFc=0.5000 IDamp=-1.
 Damping current iteration by 5.00D-01
 RMSDP=1.34D-02 MaxDP=4.24D-01              OVMax= 1.30D-01

 Cycle   2  Pass 0  IDiag  1:
 RMSU=  3.67D-03    CP:  8.03D-01
 E= -2271.17360886700     Delta-E=       -0.646115156898 Rises=F Damp=T
 DIIS: error= 3.60D-02 at cycle   2 NSaved=   2.
 NSaved= 2 IEnMin= 2 EnMin= -2271.17360886700     IErMin= 2 ErrMin= 3.60D-02
 ErrMax= 3.60D-02 EMaxC= 1.00D-01 BMatC= 7.62D-01 BMatP= 2.85D+00
 IDIUse=3 WtCom= 6.40D-01 WtEn= 3.60D-01
 Coeff-Com: -0.809D+00 0.181D+01
 Coeff-En:   0.000D+00 0.100D+01
 Coeff:     -0.518D+00 0.152D+01
 Gap=     0.265 Goal=   None    Shift=    0.000
 RMSDP=9.07D-03 MaxDP=2.73D-01 DE=-6.46D-01 OVMax= 5.37D-02

 Cycle   3  Pass 0  IDiag  1:
 RMSU=  3.34D-03    CP:  5.31D-01  1.98D+00
 E= -2271.80374689071     Delta-E=       -0.630138023711 Rises=F Damp=F
 DIIS: error= 1.00D-02 at cycle   3 NSaved=   3.
 NSaved= 3 IEnMin= 3 EnMin= -2271.80374689071     IErMin= 3 ErrMin= 1.00D-02
 ErrMax= 1.00D-02 EMaxC= 1.00D-01 BMatC= 6.50D-02 BMatP= 7.62D-01
 IDIUse=3 WtCom= 9.00D-01 WtEn= 1.00D-01
 Coeff-Com: -0.352D+00 0.632D+00 0.720D+00
 Coeff-En:   0.000D+00 0.000D+00 0.100D+01
 Coeff:     -0.316D+00 0.568D+00 0.748D+00
 Gap=     0.255 Goal=   None    Shift=    0.000
 RMSDP=2.32D-03 MaxDP=6.60D-02 DE=-6.30D-01 OVMax= 1.92D-02

 Cycle   4  Pass 0  IDiag  1:
 RMSU=  5.03D-04    CP:  5.75D-01  2.12D+00  6.05D-01
 E= -2271.85595855031     Delta-E=       -0.052211659597 Rises=F Damp=F
 DIIS: error= 1.08D-03 at cycle   4 NSaved=   4.
 NSaved= 4 IEnMin= 4 EnMin= -2271.85595855031     IErMin= 4 ErrMin= 1.08D-03
 ErrMax= 1.08D-03 EMaxC= 1.00D-01 BMatC= 7.67D-04 BMatP= 6.50D-02
 IDIUse=3 WtCom= 9.89D-01 WtEn= 1.08D-02
 Coeff-Com:  0.203D-01-0.438D-01 0.485D-01 0.975D+00
 Coeff-En:   0.000D+00 0.000D+00 0.000D+00 0.100D+01
 Coeff:      0.201D-01-0.433D-01 0.480D-01 0.975D+00
 Gap=     0.256 Goal=   None    Shift=    0.000
 RMSDP=2.07D-04 MaxDP=2.90D-03 DE=-5.22D-02 OVMax= 5.38D-03

 Cycle   5  Pass 0  IDiag  1:
 RMSU=  8.37D-05    CP:  5.72D-01  2.13D+00  6.32D-01  1.11D+00
 E= -2271.85707177558     Delta-E=       -0.001113225271 Rises=F Damp=F
 DIIS: error= 2.47D-04 at cycle   5 NSaved=   5.
 NSaved= 5 IEnMin= 5 EnMin= -2271.85707177558     IErMin= 5 ErrMin= 2.47D-04
 ErrMax= 2.47D-04 EMaxC= 1.00D-01 BMatC= 3.44D-05 BMatP= 7.67D-04
 IDIUse=3 WtCom= 9.98D-01 WtEn= 2.47D-03
 Coeff-Com:  0.911D-02-0.148D-01-0.448D-01-0.303D+00 0.135D+01
 Coeff-En:   0.000D+00 0.000D+00 0.000D+00 0.000D+00 0.100D+01
 Coeff:      0.908D-02-0.148D-01-0.447D-01-0.302D+00 0.135D+01
 Gap=     0.258 Goal=   None    Shift=    0.000
 RMSDP=8.42D-05 MaxDP=1.95D-03 DE=-1.11D-03 OVMax= 3.51D-03

 Cycle   6  Pass 0  IDiag  1:
 RMSU=  2.64D-05    CP:  5.71D-01  2.13D+00  6.26D-01  1.15D+00  1.52D+00
 E= -2271.85723566881     Delta-E=       -0.000163893228 Rises=F Damp=F
 DIIS: error= 7.33D-05 at cycle   6 NSaved=   6.
 NSaved= 6 IEnMin= 6 EnMin= -2271.85723566881     IErMin= 6 ErrMin= 7.33D-05
 ErrMax= 7.33D-05 EMaxC= 1.00D-01 BMatC= 2.33D-06 BMatP= 3.44D-05
 IDIUse=1 WtCom= 1.00D+00 WtEn= 0.00D+00
 Coeff-Com: -0.374D-02 0.653D-02 0.137D-01 0.599D-01-0.455D+00 0.138D+01
 Coeff:     -0.374D-02 0.653D-02 0.137D-01 0.599D-01-0.455D+00 0.138D+01
 Gap=     0.258 Goal=   None    Shift=    0.000
 RMSDP=2.70D-05 MaxDP=4.46D-04 DE=-1.64D-04 OVMax= 1.15D-03

 Cycle   7  Pass 0  IDiag  1:
 RMSU=  7.37D-06    CP:  5.71D-01  2.13D+00  6.25D-01  1.15D+00  1.68D+00
                    CP:  1.32D+00
 E= -2271.85724940860     Delta-E=       -0.000013739789 Rises=F Damp=F
 DIIS: error= 1.78D-05 at cycle   7 NSaved=   7.
 NSaved= 7 IEnMin= 7 EnMin= -2271.85724940860     IErMin= 7 ErrMin= 1.78D-05
 ErrMax= 1.78D-05 EMaxC= 1.00D-01 BMatC= 3.20D-07 BMatP= 2.33D-06
 IDIUse=1 WtCom= 1.00D+00 WtEn= 0.00D+00
 Coeff-Com: -0.181D-02 0.307D-02 0.750D-02 0.445D-01-0.237D+00 0.251D+00
 Coeff-Com:  0.933D+00
 Coeff:     -0.181D-02 0.307D-02 0.750D-02 0.445D-01-0.237D+00 0.251D+00
 Coeff:      0.933D+00
 Gap=     0.258 Goal=   None    Shift=    0.000
 RMSDP=7.68D-06 MaxDP=1.65D-04 DE=-1.37D-05 OVMax= 3.33D-04

 Initial convergence to 1.0D-05 achieved.  Increase integral accuracy.
 Cycle   8  Pass 1  IDiag  1:
 E= -2271.85725034308     Delta-E=       -0.000000934477 Rises=F Damp=F
 DIIS: error= 9.79D-06 at cycle   1 NSaved=   1.
 NSaved= 1 IEnMin= 1 EnMin= -2271.85725034308     IErMin= 1 ErrMin= 9.79D-06
 ErrMax= 9.79D-06 EMaxC= 1.00D-01 BMatC= 9.65D-08 BMatP= 9.65D-08
 IDIUse=1 WtCom= 1.00D+00 WtEn= 0.00D+00
 Coeff-Com:  0.100D+01
 Coeff:      0.100D+01
 Gap=     0.258 Goal=   None    Shift=    0.000
 RMSDP=7.68D-06 MaxDP=1.65D-04 DE=-9.34D-07 OVMax= 1.25D-04

 Cycle   9  Pass 1  IDiag  1:
 RMSU=  2.79D-06    CP:  1.00D+00
 E= -2271.85725033921     Delta-E=        0.000000003867 Rises=F Damp=F
 DIIS: error= 1.12D-05 at cycle   2 NSaved=   2.
 NSaved= 2 IEnMin= 1 EnMin= -2271.85725034308     IErMin= 1 ErrMin= 9.79D-06
 ErrMax= 1.12D-05 EMaxC= 1.00D-01 BMatC= 1.16D-07 BMatP= 9.65D-08
 IDIUse=1 WtCom= 1.00D+00 WtEn= 0.00D+00
 Coeff-Com:  0.524D+00 0.476D+00
 Coeff:      0.524D+00 0.476D+00
 Gap=     0.258 Goal=   None    Shift=    0.000
 RMSDP=1.70D-06 MaxDP=4.10D-05 DE= 3.87D-09 OVMax= 6.56D-05

 Cycle  10  Pass 1  IDiag  1:
 RMSU=  7.21D-07    CP:  1.00D+00  6.55D-01
 E= -2271.85725046823     Delta-E=       -0.000000129019 Rises=F Damp=F
 DIIS: error= 1.32D-06 at cycle   3 NSaved=   3.
 NSaved= 3 IEnMin= 3 EnMin= -2271.85725046823     IErMin= 3 ErrMin= 1.32D-06
 ErrMax= 1.32D-06 EMaxC= 1.00D-01 BMatC= 7.77D-10 BMatP= 9.65D-08
 IDIUse=1 WtCom= 1.00D+00 WtEn= 0.00D+00
 Coeff-Com: -0.318D+00-0.254D+00 0.157D+01
 Coeff:     -0.318D+00-0.254D+00 0.157D+01
 Gap=     0.258 Goal=   None    Shift=    0.000
 RMSDP=3.70D-07 MaxDP=8.67D-06 DE=-1.29D-07 OVMax= 2.05D-05

 Cycle  11  Pass 1  IDiag  1:
 RMSU=  2.19D-07    CP:  1.00D+00  6.85D-01  1.13D+00
 E= -2271.85725047203     Delta-E=       -0.000000003805 Rises=F Damp=F
 DIIS: error= 3.02D-07 at cycle   4 NSaved=   4.
 NSaved= 4 IEnMin= 4 EnMin= -2271.85725047203     IErMin= 4 ErrMin= 3.02D-07
 ErrMax= 3.02D-07 EMaxC= 1.00D-01 BMatC= 8.08D-11 BMatP= 7.77D-10
 IDIUse=1 WtCom= 1.00D+00 WtEn= 0.00D+00
 Coeff-Com: -0.113D+00-0.949D-01 0.357D+00 0.851D+00
 Coeff:     -0.113D+00-0.949D-01 0.357D+00 0.851D+00
 Gap=     0.258 Goal=   None    Shift=    0.000
 RMSDP=1.34D-07 MaxDP=3.93D-06 DE=-3.81D-09 OVMax= 4.03D-06

 Cycle  12  Pass 1  IDiag  1:
 RMSU=  7.06D-08    CP:  1.00D+00  6.83D-01  1.13D+00  1.27D+00
 E= -2271.85725047251     Delta-E=       -0.000000000473 Rises=F Damp=F
 DIIS: error= 1.47D-07 at cycle   5 NSaved=   5.
 NSaved= 5 IEnMin= 5 EnMin= -2271.85725047251     IErMin= 5 ErrMin= 1.47D-07
 ErrMax= 1.47D-07 EMaxC= 1.00D-01 BMatC= 1.71D-11 BMatP= 8.08D-11
 IDIUse=1 WtCom= 1.00D+00 WtEn= 0.00D+00
 Coeff-Com:  0.130D-01 0.897D-02-0.132D+00 0.258D+00 0.853D+00
 Coeff:      0.130D-01 0.897D-02-0.132D+00 0.258D+00 0.853D+00
 Gap=     0.258 Goal=   None    Shift=    0.000
 RMSDP=6.51D-08 MaxDP=2.31D-06 DE=-4.73D-10 OVMax= 1.73D-06

 Cycle  13  Pass 1  IDiag  1:
 RMSU=  2.88D-08    CP:  1.00D+00  6.79D-01  1.11D+00  1.38D+00  1.03D+00
 E= -2271.85725047244     Delta-E=        0.000000000069 Rises=F Damp=F
 DIIS: error= 4.56D-08 at cycle   6 NSaved=   6.
 NSaved= 6 IEnMin= 5 EnMin= -2271.85725047251     IErMin= 6 ErrMin= 4.56D-08
 ErrMax= 4.56D-08 EMaxC= 1.00D-01 BMatC= 1.90D-12 BMatP= 1.71D-11
 IDIUse=1 WtCom= 1.00D+00 WtEn= 0.00D+00
 Coeff-Com:  0.217D-01 0.181D-01-0.737D-01-0.137D+00 0.102D+00 0.107D+01
 Coeff:      0.217D-01 0.181D-01-0.737D-01-0.137D+00 0.102D+00 0.107D+01
 Gap=     0.258 Goal=   None    Shift=    0.000
 RMSDP=2.52D-08 MaxDP=7.06D-07 DE= 6.91D-11 OVMax= 1.10D-06

 Cycle  14  Pass 1  IDiag  1:
 RMSU=  9.92D-09    CP:  1.00D+00  6.79D-01  1.11D+00  1.42D+00  1.18D+00
                    CP:  1.25D+00
 E= -2271.85725047266     Delta-E=       -0.000000000227 Rises=F Damp=F
 DIIS: error= 3.11D-08 at cycle   7 NSaved=   7.
 NSaved= 7 IEnMin= 7 EnMin= -2271.85725047266     IErMin= 7 ErrMin= 3.11D-08
 ErrMax= 3.11D-08 EMaxC= 1.00D-01 BMatC= 3.80D-13 BMatP= 1.90D-12
 IDIUse=1 WtCom= 1.00D+00 WtEn= 0.00D+00
 Coeff-Com:  0.117D-02 0.106D-02 0.125D-03-0.254D-01-0.292D-01 0.999D-01
 Coeff-Com:  0.952D+00
 Coeff:      0.117D-02 0.106D-02 0.125D-03-0.254D-01-0.292D-01 0.999D-01
 Coeff:      0.952D+00
 Gap=     0.258 Goal=   None    Shift=    0.000
 DSYEVD returned Info=      293898 IAlg= 4 N=  1082 NDim=  1082 NE2=     7628109 trying DSYEV.
 RMSDP=1.59D-08 MaxDP=4.75D-07 DE=-2.27D-10 OVMax= 5.59D-07

 Cycle  15  Pass 1  IDiag  1:
 RMSU=  1.02D-08    CP:  1.00D+00  6.79D-01  1.11D+00  1.42D+00  1.20D+00
                    CP:  1.27D+00  1.22D+00
 E= -2271.85725047242     Delta-E=        0.000000000242 Rises=F Damp=F
 DIIS: error= 2.41D-08 at cycle   8 NSaved=   8.
 NSaved= 8 IEnMin= 7 EnMin= -2271.85725047266     IErMin= 8 ErrMin= 2.41D-08
 ErrMax= 2.41D-08 EMaxC= 1.00D-01 BMatC= 2.33D-13 BMatP= 3.80D-13
 IDIUse=1 WtCom= 1.00D+00 WtEn= 0.00D+00
 Coeff-Com: -0.111D-01-0.919D-02 0.390D-01 0.632D-01-0.641D-01-0.536D+00
 Coeff-Com:  0.316D+00 0.120D+01
 Coeff:     -0.111D-01-0.919D-02 0.390D-01 0.632D-01-0.641D-01-0.536D+00
 Coeff:      0.316D+00 0.120D+01
 Gap=     0.258 Goal=   None    Shift=    0.000
 RMSDP=2.92D-08 MaxDP=9.05D-07 DE= 2.42D-10 OVMax= 7.87D-07

 Cycle  16  Pass 1  IDiag  1:
 RMSU=  1.71D-08    CP:  1.00D+00  6.80D-01  1.11D+00  1.42D+00  1.21D+00
                    CP:  1.32D+00  1.75D+00  1.93D+00
 E= -2271.85725047251     Delta-E=       -0.000000000089 Rises=F Damp=F
 DIIS: error= 1.37D-08 at cycle   9 NSaved=   9.
 NSaved= 9 IEnMin= 7 EnMin= -2271.85725047266     IErMin= 9 ErrMin= 1.37D-08
 ErrMax= 1.37D-08 EMaxC= 1.00D-01 BMatC= 8.96D-14 BMatP= 2.33D-13
 IDIUse=1 WtCom= 1.00D+00 WtEn= 0.00D+00
 Coeff-Com: -0.242D-02-0.203D-02 0.748D-02 0.194D-01-0.565D-02-0.135D+00
 Coeff-Com: -0.166D+00 0.131D+00 0.115D+01
 Coeff:     -0.242D-02-0.203D-02 0.748D-02 0.194D-01-0.565D-02-0.135D+00
 Coeff:     -0.166D+00 0.131D+00 0.115D+01
 Gap=     0.258 Goal=   None    Shift=    0.000
 RMSDP=3.67D-08 MaxDP=9.55D-07 DE=-8.91D-11 OVMax= 4.92D-07

 Cycle  17  Pass 1  IDiag  1:
 RMSU=  1.56D-08    CP:  1.00D+00  6.80D-01  1.11D+00  1.42D+00  1.26D+00
                    CP:  1.42D+00  2.21D+00  2.71D+00  2.05D+00
 E= -2271.85725047221     Delta-E=        0.000000000302 Rises=F Damp=F
 DIIS: error= 2.41D-08 at cycle  10 NSaved=  10.
 NSaved=10 IEnMin= 7 EnMin= -2271.85725047266     IErMin= 9 ErrMin= 1.37D-08
 ErrMax= 2.41D-08 EMaxC= 1.00D-01 BMatC= 6.76D-14 BMatP= 8.96D-14
 IDIUse=1 WtCom= 1.00D+00 WtEn= 0.00D+00
 Coeff-Com: -0.465D-03-0.396D-03 0.125D-02 0.523D-02 0.213D-03-0.312D-01
 Coeff-Com: -0.740D-01-0.623D-01 0.505D+00 0.657D+00
 Coeff:     -0.465D-03-0.396D-03 0.125D-02 0.523D-02 0.213D-03-0.312D-01
 Coeff:     -0.740D-01-0.623D-01 0.505D+00 0.657D+00
 Gap=     0.258 Goal=   None    Shift=    0.000
 RMSDP=2.61D-08 MaxDP=7.42D-07 DE= 3.02D-10 OVMax= 1.29D-07

 Cycle  18  Pass 1  IDiag  1:
 RMSU=  9.37D-09    CP:  1.00D+00  6.80D-01  1.11D+00  1.43D+00  1.29D+00
                    CP:  1.51D+00  2.56D+00  3.00D+00  2.61D+00  1.67D+00
 E= -2271.85725047276     Delta-E=       -0.000000000548 Rises=F Damp=F
 DIIS: error= 3.29D-08 at cycle  11 NSaved=  11.
 NSaved=11 IEnMin=11 EnMin= -2271.85725047276     IErMin= 9 ErrMin= 1.37D-08
 ErrMax= 3.29D-08 EMaxC= 1.00D-01 BMatC= 9.63D-14 BMatP= 6.76D-14
 IDIUse=1 WtCom= 1.00D+00 WtEn= 0.00D+00
 Coeff-Com: -0.137D-03-0.126D-03 0.302D-04 0.380D-02 0.258D-02-0.171D-01
 Coeff-Com: -0.969D-01-0.114D+00 0.572D+00 0.912D+00-0.262D+00
 Coeff:     -0.137D-03-0.126D-03 0.302D-04 0.380D-02 0.258D-02-0.171D-01
 Coeff:     -0.969D-01-0.114D+00 0.572D+00 0.912D+00-0.262D+00
 Gap=     0.258 Goal=   None    Shift=    0.000
 RMSDP=8.88D-09 MaxDP=2.46D-07 DE=-5.48D-10 OVMax= 4.56D-09

 SCF Done:  E(RHF) =  -2271.85725047     A.U. after   18 cycles
             Convg  =    0.8881D-08             -V/T =  2.0016
 KE= 2.268241221929D+03 PE=-2.193257774119D+04 EE= 9.065397773726D+03
 Leave Link  502 at Wed Feb 12 08:16:09 2014, MaxMem= 8257536000 cpu:  104522.1
 (Enter /apps/gaussian/g09_c01/g09/l801.exe)
 Range of M.O.s used for correlation:     1  1082
 NBasis=  1140 NAE=   180 NBE=   180 NFC=     0 NFV=     0
 NROrb=   1082 NOA=   180 NOB=   180 NVA=   902 NVB=   902

 **** Warning!!: The largest alpha MO coefficient is  0.11361002D+03

 Leave Link  801 at Wed Feb 12 08:16:09 2014, MaxMem= 8257536000 cpu:       0.5
 (Enter /apps/gaussian/g09_c01/g09/l1002.exe)
 Minotr:  Closed shell wavefunction.
          Direct CPHF calculation.
          Differentiating once with respect to electric field.
                with respect to dipole field.
          Electric field/nuclear overlap derivatives assumed to be zero.
          Requested convergence is 1.0D-08 RMS, and 1.0D-07 maximum.
          Secondary convergence is 1.0D-12 RMS, and 1.0D-12 maximum.
          NewPWx=F KeepS1=T KeepF1=T KeepIn=T MapXYZ=F SortEE=F KeepMc=T.
          MDV=    8257535516 using IRadAn=       2.
          Solving linear equations simultaneously, MaxMat=      72.
          There are     3 degrees of freedom in the 1st order CPHF.  IDoFFX=0.
      3 vectors produced by pass  0 Test12= 5.41D-12 3.33D-08 XBig12= 4.21D+02 6.38D+00.
 AX will form     3 AO Fock derivatives at one time.
 FoFCou: FMM=T IPFlag=           0 FMFlag=      100000 FMFlg1=        2001
         NFxFlg=           0 DoJE=F BraDBF=F KetDBF=F FulRan=T
         Omega=  0.000000  0.000000  1.000000  0.000000  0.000000 ICntrl=       0 IOpCl=  0
         NMat0=    3 NMatS0=    3 NMatT0=    0 NMatD0=    3 NMtDS0=    0 NMtDT0=    0
         I1Cent=           0 NGrid=           0.
 Symmetry not used in FoFCou.
 FMM levels:  10  Number of levels for PrismC:   9
      3 vectors produced by pass  1 Test12= 5.41D-12 3.33D-08 XBig12= 5.45D+01 7.73D-01.
      3 vectors produced by pass  2 Test12= 5.41D-12 3.33D-08 XBig12= 7.66D+00 3.47D-01.
      3 vectors produced by pass  3 Test12= 5.41D-12 3.33D-08 XBig12= 3.35D-01 7.89D-02.
      3 vectors produced by pass  4 Test12= 5.41D-12 3.33D-08 XBig12= 2.29D-02 2.29D-02.
      3 vectors produced by pass  5 Test12= 5.41D-12 3.33D-08 XBig12= 2.57D-03 5.35D-03.
      3 vectors produced by pass  6 Test12= 5.41D-12 3.33D-08 XBig12= 2.86D-04 2.07D-03.
      3 vectors produced by pass  7 Test12= 5.41D-12 3.33D-08 XBig12= 1.01D-05 3.57D-04.
      3 vectors produced by pass  8 Test12= 5.41D-12 3.33D-08 XBig12= 2.22D-06 2.35D-04.
      3 vectors produced by pass  9 Test12= 5.41D-12 3.33D-08 XBig12= 4.67D-07 6.74D-05.
      3 vectors produced by pass 10 Test12= 5.41D-12 3.33D-08 XBig12= 1.97D-08 1.03D-05.
      3 vectors produced by pass 11 Test12= 5.41D-12 3.33D-08 XBig12= 3.38D-09 9.24D-06.
      3 vectors produced by pass 12 Test12= 5.41D-12 3.33D-08 XBig12= 1.08D-09 5.69D-06.
      3 vectors produced by pass 13 Test12= 5.41D-12 3.33D-08 XBig12= 1.29D-10 2.02D-06.
      3 vectors produced by pass 14 Test12= 5.41D-12 3.33D-08 XBig12= 2.81D-11 6.32D-07.
      3 vectors produced by pass 15 Test12= 5.41D-12 3.33D-08 XBig12= 4.53D-12 2.53D-07.
      3 vectors produced by pass 16 Test12= 5.41D-12 3.33D-08 XBig12= 5.57D-13 9.21D-08.
      1 vectors produced by pass 17 Test12= 5.41D-12 3.33D-08 XBig12= 8.64D-14 4.18D-08.
 Inverted reduced A of dimension    52 with in-core refinement.
 FullF1:  Do perturbations    1 to     3.
 SCF Polarizability for W=    0.000000:
                1             2             3 
      1  0.525053D+03
      2 -0.159791D-01  0.525062D+03
      3  0.437355D-01 -0.199488D-01  0.525079D+03
 Isotropic polarizability for W=    0.000000      525.06 Bohr**3.
 SCF Static Hyperpolarizability:
 K=  1 block:
                1 
      1 -0.817987D-01
 K=  2 block:
                1             2 
      1 -0.945542D-01
      2 -0.346927D-02  0.420027D-03
 K=  3 block:
                1             2             3 
      1 -0.542593D-01
      2 -0.194853D-01  0.742121D-01
      3 -0.384508D-01  0.552010D-01  0.299261D-01
 End of Minotr Frequency-dependent properties file   721 does not exist.
 End of Minotr Frequency-dependent properties file   722 does not exist.
 Leave Link 1002 at Wed Feb 12 12:31:57 2014, MaxMem= 8257536000 cpu:  184145.0
 (Enter /apps/gaussian/g09_c01/g09/l601.exe)
 Copying SCF densities to generalized density rwf, IOpCl= 0 IROHF=0.

 **********************************************************************

            Population analysis using the SCF density.

 **********************************************************************

 Alpha  occ. eigenvalues --  -11.29976 -11.29968 -11.29966 -11.29965 -11.29948
 Alpha  occ. eigenvalues --  -11.29947 -11.29946 -11.29945 -11.29945 -11.29920
 Alpha  occ. eigenvalues --  -11.29920 -11.29919 -11.29919 -11.29918 -11.29917
 Alpha  occ. eigenvalues --  -11.29917 -11.29892 -11.29892 -11.29892 -11.29891
 Alpha  occ. eigenvalues --  -11.29887 -11.29886 -11.29886 -11.29885 -11.29885
 Alpha  occ. eigenvalues --  -11.29874 -11.29873 -11.29873 -11.29873 -11.29872
 Alpha  occ. eigenvalues --  -11.29813 -11.29813 -11.29812 -11.29803 -11.29802
 Alpha  occ. eigenvalues --  -11.29801 -11.29774 -11.29773 -11.29773 -11.29772
 Alpha  occ. eigenvalues --  -11.29771 -11.29765 -11.29765 -11.29764 -11.29755
 Alpha  occ. eigenvalues --  -11.29754 -11.29754 -11.29754 -11.29753 -11.29735
 Alpha  occ. eigenvalues --  -11.29734 -11.29733 -11.29732 -11.29707 -11.29705
 Alpha  occ. eigenvalues --  -11.29705 -11.29704 -11.29703 -11.29702 -11.29701
 Alpha  occ. eigenvalues --   -1.30382  -1.27907  -1.27906  -1.27903  -1.23125
 Alpha  occ. eigenvalues --   -1.23124  -1.23123  -1.23122  -1.23120  -1.17988
 Alpha  occ. eigenvalues --   -1.17986  -1.17986  -1.14152  -1.14149  -1.14149
 Alpha  occ. eigenvalues --   -1.14148  -1.07581  -1.07580  -1.07580  -1.07579
 Alpha  occ. eigenvalues --   -1.07577  -1.05718  -1.05716  -1.05716  -1.05714
 Alpha  occ. eigenvalues --   -0.98891  -0.98888  -0.98887  -0.98886  -0.98885
 Alpha  occ. eigenvalues --   -0.95925  -0.95924  -0.95923  -0.89952  -0.89951
 Alpha  occ. eigenvalues --   -0.89949  -0.86226  -0.86222  -0.86220  -0.85965
 Alpha  occ. eigenvalues --   -0.85963  -0.85961  -0.85960  -0.85959  -0.80799
 Alpha  occ. eigenvalues --   -0.76346  -0.76345  -0.76344  -0.76342  -0.74285
 Alpha  occ. eigenvalues --   -0.74285  -0.74284  -0.74282  -0.74282  -0.71297
 Alpha  occ. eigenvalues --   -0.71296  -0.71294  -0.67655  -0.67654  -0.67654
 Alpha  occ. eigenvalues --   -0.65589  -0.64827  -0.64825  -0.64825  -0.64823
 Alpha  occ. eigenvalues --   -0.62632  -0.62632  -0.62631  -0.62629  -0.62627
 Alpha  occ. eigenvalues --   -0.62440  -0.62438  -0.62436  -0.61100  -0.61100
 Alpha  occ. eigenvalues --   -0.61100  -0.61097  -0.59564  -0.59563  -0.59562
 Alpha  occ. eigenvalues --   -0.57476  -0.57475  -0.57473  -0.57472  -0.56339
 Alpha  occ. eigenvalues --   -0.56339  -0.56337  -0.56337  -0.56336  -0.51761
 Alpha  occ. eigenvalues --   -0.51758  -0.51756  -0.51756  -0.51755  -0.50475
 Alpha  occ. eigenvalues --   -0.50474  -0.50473  -0.50472  -0.50469  -0.48137
 Alpha  occ. eigenvalues --   -0.48136  -0.48135  -0.46407  -0.46406  -0.46404
 Alpha  occ. eigenvalues --   -0.46404  -0.36569  -0.36568  -0.36567  -0.36565
 Alpha  occ. eigenvalues --   -0.35614  -0.35613  -0.35612  -0.35610  -0.35609
 Alpha  occ. eigenvalues --   -0.29100  -0.29099  -0.29097  -0.29095  -0.29093
 Alpha virt. eigenvalues --   -0.03280  -0.03275  -0.03272   0.03021   0.03024
 Alpha virt. eigenvalues --    0.03033   0.07409   0.07411   0.07415   0.07732
 Alpha virt. eigenvalues --    0.07939   0.07942   0.07942   0.07946   0.07949
 Alpha virt. eigenvalues --    0.09515   0.09516   0.09517   0.10547   0.10548
 Alpha virt. eigenvalues --    0.10548   0.10549   0.10549   0.11477   0.11478
 Alpha virt. eigenvalues --    0.11478   0.11485   0.11486   0.11486   0.11486
 Alpha virt. eigenvalues --    0.12840   0.12902   0.12903   0.12903   0.12903
 Alpha virt. eigenvalues --    0.13253   0.13253   0.13254   0.13254   0.13254
 Alpha virt. eigenvalues --    0.15517   0.15517   0.15517   0.15517   0.15517
 Alpha virt. eigenvalues --    0.15797   0.15797   0.15797   0.16206   0.16206
 Alpha virt. eigenvalues --    0.16207   0.16846   0.16848   0.16854   0.16857
 Alpha virt. eigenvalues --    0.16860   0.17506   0.17508   0.17509   0.17510
 Alpha virt. eigenvalues --    0.18771   0.18771   0.18772   0.18867   0.18868
 Alpha virt. eigenvalues --    0.18868   0.18869   0.18869   0.21523   0.21527
 Alpha virt. eigenvalues --    0.21530   0.21534   0.22059   0.23702   0.23704
 Alpha virt. eigenvalues --    0.23705   0.23708   0.23716   0.23717   0.23718
 Alpha virt. eigenvalues --    0.23719   0.23719   0.23954   0.23957   0.23958
 Alpha virt. eigenvalues --    0.24963   0.24963   0.24965   0.24966   0.26105
 Alpha virt. eigenvalues --    0.26106   0.26107   0.26306   0.26307   0.26307
 Alpha virt. eigenvalues --    0.26433   0.26436   0.26439   0.28102   0.28103
 Alpha virt. eigenvalues --    0.28103   0.28105   0.28107   0.29194   0.29196
 Alpha virt. eigenvalues --    0.29199   0.29581   0.29582   0.29583   0.29583
 Alpha virt. eigenvalues --    0.31138   0.31139   0.31140   0.31140   0.31141
 Alpha virt. eigenvalues --    0.31158   0.31160   0.31163   0.32929   0.32931
 Alpha virt. eigenvalues --    0.32932   0.34468   0.34468   0.34469   0.34470
 Alpha virt. eigenvalues --    0.34471   0.34758   0.34763   0.34767   0.34773
 Alpha virt. eigenvalues --    0.35041   0.35043   0.35044   0.35046   0.35048
 Alpha virt. eigenvalues --    0.35519   0.35522   0.35525   0.35914   0.35915
 Alpha virt. eigenvalues --    0.35916   0.35916   0.36330   0.36331   0.36332
 Alpha virt. eigenvalues --    0.36535   0.36535   0.36536   0.36536   0.36621
 Alpha virt. eigenvalues --    0.36621   0.36621   0.36622   0.36622   0.36984
 Alpha virt. eigenvalues --    0.36987   0.36990   0.36990   0.37203   0.37203
 Alpha virt. eigenvalues --    0.37206   0.37206   0.37207   0.37729   0.37730
 Alpha virt. eigenvalues --    0.37731   0.38109   0.38110   0.38111   0.38609
 Alpha virt. eigenvalues --    0.38609   0.38609   0.38609   0.38610   0.38832
 Alpha virt. eigenvalues --    0.38834   0.38834   0.38836   0.39115   0.39118
 Alpha virt. eigenvalues --    0.39121   0.39125   0.39126   0.39265   0.39266
 Alpha virt. eigenvalues --    0.39267   0.39479   0.39482   0.39485   0.39487
 Alpha virt. eigenvalues --    0.40832   0.40833   0.40833   0.41613   0.41614
 Alpha virt. eigenvalues --    0.41614   0.41615   0.41615   0.41878   0.41880
 Alpha virt. eigenvalues --    0.41880   0.41885   0.42150   0.42150   0.42151
 Alpha virt. eigenvalues --    0.42364   0.42366   0.42368   0.42369   0.42371
 Alpha virt. eigenvalues --    0.42729   0.42730   0.42731   0.43886   0.43888
 Alpha virt. eigenvalues --    0.43889   0.45401   0.45401   0.45403   0.45405
 Alpha virt. eigenvalues --    0.45406   0.46149   0.46150   0.46151   0.46152
 Alpha virt. eigenvalues --    0.46153   0.46487   0.46488   0.46490   0.46491
 Alpha virt. eigenvalues --    0.46493   0.46654   0.46655   0.46655   0.46658
 Alpha virt. eigenvalues --    0.49519   0.49523   0.49526   0.49527   0.49529
 Alpha virt. eigenvalues --    0.52053   0.52054   0.52057   0.52449   0.52454
 Alpha virt. eigenvalues --    0.52455   0.52456   0.55168   0.55170   0.55173
 Alpha virt. eigenvalues --    0.58025   0.58029   0.58038   0.60089   0.60093
 Alpha virt. eigenvalues --    0.60094   0.60096   0.60100   0.66953   0.66957
 Alpha virt. eigenvalues --    0.66966   0.70060   0.70062   0.70068   0.70073
 Alpha virt. eigenvalues --    0.70075   0.71027   0.71030   0.71033   0.71037
 Alpha virt. eigenvalues --    0.72071   0.72072   0.72081   0.72084   0.73374
 Alpha virt. eigenvalues --    0.74339   0.74354   0.74357   0.75591   0.75594
 Alpha virt. eigenvalues --    0.75598   0.75599   0.80326   0.80326   0.80332
 Alpha virt. eigenvalues --    0.80335   0.80337   0.82676   0.82681   0.82685
 Alpha virt. eigenvalues --    0.82687   0.82692   0.82833   0.82835   0.82838
 Alpha virt. eigenvalues --    0.82841   0.82842   0.83649   0.83652   0.83657
 Alpha virt. eigenvalues --    0.87166   0.87167   0.87171   0.87176   0.87349
 Alpha virt. eigenvalues --    0.90156   0.90159   0.90164   0.91180   0.91180
 Alpha virt. eigenvalues --    0.91183   0.93134   0.93139   0.93145   0.93188
 Alpha virt. eigenvalues --    0.93192   0.93197   0.93202   0.94615   0.94616
 Alpha virt. eigenvalues --    0.94618   0.94619   0.94684   0.94687   0.94688
 Alpha virt. eigenvalues --    0.97688   0.97690   0.97694   0.97694   0.97696
 Alpha virt. eigenvalues --    0.98257   0.98261   0.98265   0.99922   1.00245
 Alpha virt. eigenvalues --    1.00250   1.00253   1.00875   1.02140   1.02146
 Alpha virt. eigenvalues --    1.02150   1.02154   1.02553   1.02556   1.02559
 Alpha virt. eigenvalues --    1.02565   1.02571   1.03096   1.03100   1.03104
 Alpha virt. eigenvalues --    1.03113   1.05823   1.05824   1.05828   1.05830
 Alpha virt. eigenvalues --    1.06733   1.06737   1.06739   1.06741   1.06743
 Alpha virt. eigenvalues --    1.07078   1.07087   1.07090   1.07551   1.07556
 Alpha virt. eigenvalues --    1.07559   1.07562   1.07567   1.08386   1.08389
 Alpha virt. eigenvalues --    1.08393   1.08393   1.09608   1.09608   1.09611
 Alpha virt. eigenvalues --    1.09615   1.09781   1.09790   1.09793   1.10228
 Alpha virt. eigenvalues --    1.10229   1.10230   1.10233   1.10233   1.11993
 Alpha virt. eigenvalues --    1.11998   1.11999   1.12877   1.12879   1.12880
 Alpha virt. eigenvalues --    1.12881   1.12883   1.15502   1.15507   1.15516
 Alpha virt. eigenvalues --    1.15516   1.15523   1.16899   1.16901   1.16902
 Alpha virt. eigenvalues --    1.18480   1.18482   1.18484   1.18485   1.18664
 Alpha virt. eigenvalues --    1.18668   1.18668   1.19114   1.19114   1.19115
 Alpha virt. eigenvalues --    1.20372   1.20380   1.20388   1.21325   1.21327
 Alpha virt. eigenvalues --    1.21329   1.21332   1.21333   1.22948   1.22949
 Alpha virt. eigenvalues --    1.22950   1.22950   1.22951   1.24610   1.24612
 Alpha virt. eigenvalues --    1.24612   1.27924   1.27925   1.27929   1.28061
 Alpha virt. eigenvalues --    1.28063   1.28064   1.30057   1.30562   1.30565
 Alpha virt. eigenvalues --    1.30567   1.30568   1.30571   1.30911   1.30917
 Alpha virt. eigenvalues --    1.30918   1.30920   1.32772   1.32774   1.32774
 Alpha virt. eigenvalues --    1.32776   1.32777   1.35547   1.35547   1.35548
 Alpha virt. eigenvalues --    1.35762   1.35767   1.35772   1.35781   1.35783
 Alpha virt. eigenvalues --    1.36834   1.36841   1.36842   1.36847   1.37870
 Alpha virt. eigenvalues --    1.37874   1.37882   1.37889   1.39541   1.39543
 Alpha virt. eigenvalues --    1.39548   1.39552   1.39556   1.39965   1.39968
 Alpha virt. eigenvalues --    1.39971   1.40123   1.40136   1.40141   1.40141
 Alpha virt. eigenvalues --    1.41211   1.41214   1.41224   1.41547   1.41549
 Alpha virt. eigenvalues --    1.41550   1.44096   1.44097   1.44101   1.44107
 Alpha virt. eigenvalues --    1.44108   1.45919   1.45924   1.45929   1.45936
 Alpha virt. eigenvalues --    1.46771   1.46773   1.46788   1.47091   1.47091
 Alpha virt. eigenvalues --    1.47093   1.47096   1.47242   1.47244   1.47245
 Alpha virt. eigenvalues --    1.47248   1.47249   1.47746   1.47748   1.47754
 Alpha virt. eigenvalues --    1.47757   1.47760   1.55737   1.55738   1.55740
 Alpha virt. eigenvalues --    1.55746   1.55750   1.59191   1.59195   1.59196
 Alpha virt. eigenvalues --    1.59273   1.59274   1.59276   1.60582   1.60587
 Alpha virt. eigenvalues --    1.60591   1.60599   1.60603   1.69042   1.69053
 Alpha virt. eigenvalues --    1.69058   1.69450   1.69452   1.69457   1.69460
 Alpha virt. eigenvalues --    1.70770   1.70776   1.70781   1.70783   1.70787
 Alpha virt. eigenvalues --    1.72297   1.76557   1.76564   1.76574   1.76864
 Alpha virt. eigenvalues --    1.76870   1.76889   1.76989   1.76990   1.76992
 Alpha virt. eigenvalues --    1.76997   1.78902   1.81650   1.81655   1.81663
 Alpha virt. eigenvalues --    1.81665   1.81669   1.87577   1.87581   1.87592
 Alpha virt. eigenvalues --    1.92305   1.92306   1.92308   1.93908   1.93914
 Alpha virt. eigenvalues --    1.93925   1.93930   1.98570   1.98573   1.98574
 Alpha virt. eigenvalues --    1.99462   1.99470   1.99472   1.99477   1.99479
 Alpha virt. eigenvalues --    1.99483   1.99488   1.99497   1.99500   2.02091
 Alpha virt. eigenvalues --    2.02094   2.02095   2.02098   2.02438   2.04245
 Alpha virt. eigenvalues --    2.04246   2.04250   2.04254   2.04259   2.04959
 Alpha virt. eigenvalues --    2.04964   2.04967   2.04970   2.04972   2.06075
 Alpha virt. eigenvalues --    2.06082   2.06084   2.09222   2.09223   2.09227
 Alpha virt. eigenvalues --    2.10674   2.10680   2.10682   2.10683   2.11188
 Alpha virt. eigenvalues --    2.11190   2.11195   2.11200   2.11208   2.18492
 Alpha virt. eigenvalues --    2.18497   2.18503   2.18509   2.19007   2.19008
 Alpha virt. eigenvalues --    2.19011   2.19017   2.19018   2.23977   2.23980
 Alpha virt. eigenvalues --    2.23986   2.27356   2.27367   2.27373   2.28967
 Alpha virt. eigenvalues --    2.28984   2.28985   2.29618   2.29622   2.29623
 Alpha virt. eigenvalues --    2.29636   2.29642   2.29695   2.29705   2.29710
 Alpha virt. eigenvalues --    2.29716   2.29722   2.30696   2.30698   2.30708
 Alpha virt. eigenvalues --    2.31595   2.31615   2.31627   2.33243   2.33246
 Alpha virt. eigenvalues --    2.33250   2.33251   2.36175   2.36184   2.36187
 Alpha virt. eigenvalues --    2.36197   2.38715   2.38730   2.38735   2.38747
 Alpha virt. eigenvalues --    2.39353   2.39356   2.39360   2.39367   2.39376
 Alpha virt. eigenvalues --    2.41697   2.41707   2.41712   2.42759   2.42763
 Alpha virt. eigenvalues --    2.42774   2.44606   2.44607   2.44610   2.44613
 Alpha virt. eigenvalues --    2.44616   2.47711   2.47719   2.47724   2.47729
 Alpha virt. eigenvalues --    2.47733   2.51795   2.51798   2.51800   2.51805
 Alpha virt. eigenvalues --    2.51806   2.55180   2.55187   2.55189   2.58801
 Alpha virt. eigenvalues --    2.58810   2.58817   2.58823   2.58832   2.59493
 Alpha virt. eigenvalues --    2.59499   2.59505   2.59508   2.59517   2.59698
 Alpha virt. eigenvalues --    2.59701   2.59706   2.59708   2.60249   2.60256
 Alpha virt. eigenvalues --    2.60260   2.60263   2.64378   2.64381   2.64400
 Alpha virt. eigenvalues --    2.69201   2.69210   2.69211   2.69220   2.69226
 Alpha virt. eigenvalues --    2.74248   2.74265   2.74268   2.76845   2.76848
 Alpha virt. eigenvalues --    2.76856   2.76860   2.77655   2.77657   2.77670
 Alpha virt. eigenvalues --    2.78540   2.78544   2.78549   2.78552   2.81435
 Alpha virt. eigenvalues --    2.81440   2.81442   2.81452   2.81457   2.82822
 Alpha virt. eigenvalues --    2.82840   2.82847   2.86769   2.86783   2.86788
 Alpha virt. eigenvalues --    2.88920   2.88924   2.88935   2.91096   2.91100
 Alpha virt. eigenvalues --    2.91106   2.91109   2.91114   2.91717   2.91722
 Alpha virt. eigenvalues --    2.91730   2.91733   2.91735   2.92382   2.92387
 Alpha virt. eigenvalues --    2.92405   2.98380   2.98383   2.98385   2.98396
 Alpha virt. eigenvalues --    2.98397   2.99026   2.99030   2.99043   2.99046
 Alpha virt. eigenvalues --    2.99052   2.99468   2.99474   2.99477   3.03582
 Alpha virt. eigenvalues --    3.03591   3.03594   3.03596   3.04566   3.04572
 Alpha virt. eigenvalues --    3.04574   3.04579   3.07891   3.07894   3.07901
 Alpha virt. eigenvalues --    3.13100   3.13106   3.13110   3.13114   3.13119
 Alpha virt. eigenvalues --    3.15770   3.15780   3.15789   3.15801   3.17534
 Alpha virt. eigenvalues --    3.17539   3.17546   3.18778   3.18780   3.18790
 Alpha virt. eigenvalues --    3.19354   3.19366   3.19374   3.19380   3.19384
 Alpha virt. eigenvalues --    3.19782   3.19786   3.19791   3.21822   3.21828
 Alpha virt. eigenvalues --    3.21837   3.21840   3.21850   3.26222   3.26226
 Alpha virt. eigenvalues --    3.26232   3.26234   3.26268   3.30686   3.30694
 Alpha virt. eigenvalues --    3.30697   3.30710   3.30711   3.34559   3.34569
 Alpha virt. eigenvalues --    3.34571   3.34583   3.34946   3.34957   3.34961
 Alpha virt. eigenvalues --    3.45936   3.45942   3.45943   3.45959   3.51657
 Alpha virt. eigenvalues --    3.51667   3.51674   3.51688   3.59913   3.59927
 Alpha virt. eigenvalues --    3.59936   3.61571   3.61586   3.61596   3.61602
 Alpha virt. eigenvalues --    3.61607   3.77015   3.77029   3.77036   3.77042
 Alpha virt. eigenvalues --    3.83639   3.83654   3.83668   3.92933   3.92935
 Alpha virt. eigenvalues --    3.92942   3.98698   4.59604   4.68959   4.68969
 Alpha virt. eigenvalues --    4.68978   4.76235   4.76236   4.76237   4.76245
 Alpha virt. eigenvalues --    4.76248   4.81904   4.81906   4.81911   4.81918
 Alpha virt. eigenvalues --    4.82213   4.82218   4.82220   4.83915   4.83919
 Alpha virt. eigenvalues --    4.83920   4.83922   4.84362   4.84370   4.84376
 Alpha virt. eigenvalues --    4.84380   4.84385   4.84919   4.84920   4.84929
 Alpha virt. eigenvalues --    4.92572   4.92576   4.92577   4.92577   4.92580
 Alpha virt. eigenvalues --    4.94518   4.94519   4.94523   5.03325   5.03326
 Alpha virt. eigenvalues --    5.03338   5.10998   5.10999   5.11004   5.11005
 Alpha virt. eigenvalues --    5.11006   5.25483   5.25491   5.25502   5.25509
 Alpha virt. eigenvalues --    5.33396   5.33398   5.33410   5.33418   5.33423
 Alpha virt. eigenvalues --    5.60774   5.60788   5.60796   5.60806   5.75373
 Alpha virt. eigenvalues --    5.75382   5.75394
          Condensed to atoms (all electrons):
 Mulliken atomic charges:
              1
     1  C    0.002129
     2  C   -0.001739
     3  C   -0.006334
     4  C    0.002682
     5  C    0.002647
     6  C   -0.002450
     7  C    0.000917
     8  C    0.002186
     9  C    0.000250
    10  C    0.001089
    11  C   -0.002465
    12  C    0.002083
    13  C    0.005878
    14  C    0.000349
    15  C    0.001937
    16  C   -0.004342
    17  C   -0.000046
    18  C    0.000625
    19  C   -0.000391
    20  C    0.001062
    21  C   -0.003444
    22  C   -0.000957
    23  C    0.001960
    24  C   -0.000168
    25  C    0.003403
    26  C   -0.002089
    27  C    0.001082
    28  C   -0.004102
    29  C   -0.001149
    30  C   -0.000164
    31  C   -0.000817
    32  C    0.000374
    33  C   -0.001473
    34  C   -0.000149
    35  C    0.001178
    36  C    0.000152
    37  C   -0.000604
    38  C   -0.001613
    39  C   -0.002406
    40  C   -0.000231
    41  C   -0.001098
    42  C    0.001915
    43  C   -0.001161
    44  C   -0.002673
    45  C    0.001187
    46  C    0.001684
    47  C    0.001354
    48  C   -0.003032
    49  C    0.000865
    50  C    0.001474
    51  C    0.000185
    52  C   -0.002183
    53  C   -0.000985
    54  C    0.001932
    55  C   -0.000215
    56  C   -0.001590
    57  C    0.003264
    58  C    0.003695
    59  C   -0.001205
    60  C    0.001740
 Sum of Mulliken atomic charges =   0.00000
 Mulliken charges with hydrogens summed into heavy atoms:
              1
     1  C    0.002129
     2  C   -0.001739
     3  C   -0.006334
     4  C    0.002682
     5  C    0.002647
     6  C   -0.002450
     7  C    0.000917
     8  C    0.002186
     9  C    0.000250
    10  C    0.001089
    11  C   -0.002465
    12  C    0.002083
    13  C    0.005878
    14  C    0.000349
    15  C    0.001937
    16  C   -0.004342
    17  C   -0.000046
    18  C    0.000625
    19  C   -0.000391
    20  C    0.001062
    21  C   -0.003444
    22  C   -0.000957
    23  C    0.001960
    24  C   -0.000168
    25  C    0.003403
    26  C   -0.002089
    27  C    0.001082
    28  C   -0.004102
    29  C   -0.001149
    30  C   -0.000164
    31  C   -0.000817
    32  C    0.000374
    33  C   -0.001473
    34  C   -0.000149
    35  C    0.001178
    36  C    0.000152
    37  C   -0.000604
    38  C   -0.001613
    39  C   -0.002406
    40  C   -0.000231
    41  C   -0.001098
    42  C    0.001915
    43  C   -0.001161
    44  C   -0.002673
    45  C    0.001187
    46  C    0.001684
    47  C    0.001354
    48  C   -0.003032
    49  C    0.000865
    50  C    0.001474
    51  C    0.000185
    52  C   -0.002183
    53  C   -0.000985
    54  C    0.001932
    55  C   -0.000215
    56  C   -0.001590
    57  C    0.003264
    58  C    0.003695
    59  C   -0.001205
    60  C    0.001740
 Sum of Mulliken charges with hydrogens summed into heavy atoms =   0.00000
 Electronic spatial extent (au):  <R**2>=          16971.9926
 Charge=              0.0000 electrons
 Dipole moment (field-independent basis, Debye):
    X=             -0.0002    Y=             -0.0004    Z=              0.0000  Tot=              0.0004
 Quadrupole moment (field-independent basis, Debye-Ang):
   XX=           -346.0598   YY=           -346.0577   ZZ=           -346.0522
   XY=              0.0056   XZ=             -0.0024   YZ=              0.0009
 Traceless Quadrupole moment (field-independent basis, Debye-Ang):
   XX=             -0.0032   YY=             -0.0012   ZZ=              0.0044
   XY=              0.0056   XZ=             -0.0024   YZ=              0.0009
 Octapole moment (field-independent basis, Debye-Ang**2):
  XXX=              8.8579  YYY=             -7.0847  ZZZ=             -0.6817  XYY=              2.9500
  XXY=             -2.3553  XXZ=             -0.2146  XZZ=              2.9596  YZZ=             -2.3642
  YYZ=             -0.2199  XYZ=             -0.0019
 Hexadecapole moment (field-independent basis, Debye-Ang**3):
 XXXX=          -9173.8435 YYYY=          -9173.4782 ZZZZ=          -9174.4304 XXXY=              0.2653
 XXXZ=             -0.5916 YYYX=              0.3225 YYYZ=              0.2811 ZZZX=             -0.5191
 ZZZY=              0.2652 XXYY=          -3057.8706 XXZZ=          -3058.0554 YYZZ=          -3058.0022
 XXYZ=              0.1098 YYXZ=             -0.1744 ZZXY=              0.1424
 N-N= 8.327081495063D+03 E-N=-2.193257774125D+04  KE= 2.268241221929D+03
  Exact polarizability: 525.053  -0.016 525.062   0.044  -0.020 525.079
 Approx polarizability: 764.705  -0.004 764.759   0.061  -0.023 764.745
 No NMR shielding tensors so no spin-rotation constants.
 Leave Link  601 at Wed Feb 12 12:31:59 2014, MaxMem= 8257536000 cpu:      25.2
 (Enter /apps/gaussian/g09_c01/g09/l602.exe)
 Breneman (CHELPG) radii used.
 Generate Potential Derived Charges using the Breneman model, NDens= 1.
 Grid spacing= 0.300 Box extension= 2.800
 NStep X,Y,Z=   43     43     42   Total possible points=       77658
 Number of Points to Fit=   21006

 **********************************************************************

            Electrostatic Properties Using The SCF Density

 **********************************************************************

       Atomic Center    1 is at  -1.183084 -0.375487  3.328905
       Atomic Center    2 is at  -0.735677  1.007272  3.328108
       Atomic Center    3 is at  -1.434892  1.966637  2.594433
       Atomic Center    4 is at  -2.610109  1.582561  1.830306
       Atomic Center    5 is at  -3.039672  0.254940  1.830874
       Atomic Center    6 is at  -2.311232 -0.743884  2.594819
       Atomic Center    7 is at  -0.006254 -1.228403  3.328730
       Atomic Center    8 is at   1.168576 -0.372790  3.328439
       Atomic Center    9 is at   0.717738  1.008786  3.327303
       Atomic Center   10 is at   1.413998  1.969851  2.593466
       Atomic Center   11 is at  -0.709566  2.967521  1.829811
       Atomic Center   12 is at  -2.611039  2.346024  0.593680
       Atomic Center   13 is at  -3.042649  1.751939 -0.593033
       Atomic Center   14 is at  -3.489920  0.369054 -0.592448
       Atomic Center   15 is at  -3.488569 -0.364292  0.594937
       Atomic Center   16 is at  -3.037175 -1.745546  0.595360
       Atomic Center   17 is at  -2.310372 -1.980726  1.831852
       Atomic Center   18 is at  -1.180424 -2.799545  1.831899
       Atomic Center   19 is at  -0.005016 -2.415712  2.595573
       Atomic Center   20 is at   2.298111 -0.738574  2.594890
       Atomic Center   21 is at   2.299406 -1.975018  1.831037
       Atomic Center   22 is at   1.171298 -2.796588  1.831496
       Atomic Center   23 is at   0.722526 -3.415778  0.595431
       Atomic Center   24 is at  -0.730838 -3.417325  0.595460
       Atomic Center   25 is at  -1.428803 -3.191500 -0.591450
       Atomic Center   26 is at  -2.605842 -2.338923 -0.591594
       Atomic Center   27 is at  -2.607544 -1.575606 -1.828355
       Atomic Center   28 is at  -3.040341 -0.248880 -1.828693
       Atomic Center   29 is at  -1.436603  3.201837  0.593195
       Atomic Center   30 is at  -0.010872  1.242029 -3.327394
       Atomic Center   31 is at  -0.012165  2.429274 -2.594272
       Atomic Center   32 is at   1.163404  2.813241 -1.830631
       Atomic Center   33 is at   2.293224  1.994305 -1.830425
       Atomic Center   34 is at   2.294399  0.757597 -2.593912
       Atomic Center   35 is at   0.718649 -0.993630 -3.326880
       Atomic Center   36 is at  -0.734790 -0.995229 -3.326095
       Atomic Center   37 is at  -1.185691  0.386441 -3.327155
       Atomic Center   38 is at  -2.315152  0.752209 -2.593552
       Atomic Center   39 is at  -2.316573  1.988645 -1.829705
       Atomic Center   40 is at  -1.188353  2.810197 -1.830112
       Atomic Center   41 is at   0.713835  3.430892 -0.594233
       Atomic Center   42 is at   1.411825  3.205122  0.592746
       Atomic Center   43 is at   2.588631  2.352553  0.592822
       Atomic Center   44 is at   3.019997  1.759304 -0.594108
       Atomic Center   45 is at   3.471388  0.377834 -0.593641
       Atomic Center   46 is at   3.022737 -0.241286 -1.829704
       Atomic Center   47 is at   2.593075 -1.568924 -1.828962
       Atomic Center   48 is at   1.417817 -1.952966 -2.593140
       Atomic Center   49 is at  -1.431029 -1.956099 -2.592097
       Atomic Center   50 is at  -0.702978 -2.955445 -1.828228
       Atomic Center   51 is at   0.692547 -2.953837 -1.828438
       Atomic Center   52 is at   1.419554 -3.188302 -0.591922
       Atomic Center   53 is at   2.594057 -2.332371 -0.592419
       Atomic Center   54 is at   3.025443 -1.738260  0.594280
       Atomic Center   55 is at   3.472778 -0.355411  0.593729
       Atomic Center   56 is at   3.023205  0.262546  1.830052
       Atomic Center   57 is at   2.590402  1.589225  1.829757
       Atomic Center   58 is at  -0.739566  3.429395 -0.594195
       Atomic Center   59 is at   0.685939  2.969155  1.829610
       Atomic Center   60 is at   1.166036  0.389073 -3.327434
   21006 points will be used for fitting atomic charges
 Fitting point charges to electrostatic potential
 Charges from ESP fit, RMS=   0.01750 RRMS=   0.99938:
 Charge=   0.00000 Dipole=     0.0013     0.0010     0.0004 Tot=     0.0017
              1
     1  C   -0.020113
     2  C    0.018126
     3  C   -0.023328
     4  C    0.011753
     5  C   -0.010638
     6  C    0.020539
     7  C    0.005619
     8  C   -0.019314
     9  C    0.020597
    10  C   -0.020489
    11  C    0.014851
    12  C   -0.006685
    13  C    0.025977
    14  C   -0.008706
    15  C   -0.005168
    16  C    0.037408
    17  C   -0.036975
    18  C    0.016155
    19  C    0.000793
    20  C    0.012827
    21  C   -0.023950
    22  C    0.004080
    23  C    0.014181
    24  C   -0.003602
    25  C   -0.000809
    26  C   -0.020550
    27  C    0.007221
    28  C    0.000191
    29  C   -0.018971
    30  C    0.002218
    31  C    0.003831
    32  C    0.010347
    33  C   -0.029798
    34  C    0.015232
    35  C    0.016992
    36  C    0.018343
    37  C   -0.017164
    38  C    0.011132
    39  C   -0.023438
    40  C    0.003873
    41  C    0.000987
    42  C   -0.006391
    43  C   -0.015123
    44  C    0.031043
    45  C   -0.002867
    46  C   -0.009539
    47  C    0.011411
    48  C   -0.022679
    49  C   -0.016526
    50  C    0.006626
    51  C    0.015965
    52  C   -0.019720
    53  C   -0.007542
    54  C    0.027149
    55  C   -0.010034
    56  C   -0.001620
    57  C    0.009531
    58  C    0.012587
    59  C    0.009718
    60  C   -0.015562
 Charges from ESP fit with hydrogens summed into heavy atoms:
              1
     1  C   -0.020113
     2  C    0.018126
     3  C   -0.023328
     4  C    0.011753
     5  C   -0.010638
     6  C    0.020539
     7  C    0.005619
     8  C   -0.019314
     9  C    0.020597
    10  C   -0.020489
    11  C    0.014851
    12  C   -0.006685
    13  C    0.025977
    14  C   -0.008706
    15  C   -0.005168
    16  C    0.037408
    17  C   -0.036975
    18  C    0.016155
    19  C    0.000793
    20  C    0.012827
    21  C   -0.023950
    22  C    0.004080
    23  C    0.014181
    24  C   -0.003602
    25  C   -0.000809
    26  C   -0.020550
    27  C    0.007221
    28  C    0.000191
    29  C   -0.018971
    30  C    0.002218
    31  C    0.003831
    32  C    0.010347
    33  C   -0.029798
    34  C    0.015232
    35  C    0.016992
    36  C    0.018343
    37  C   -0.017164
    38  C    0.011132
    39  C   -0.023438
    40  C    0.003873
    41  C    0.000987
    42  C   -0.006391
    43  C   -0.015123
    44  C    0.031043
    45  C   -0.002867
    46  C   -0.009539
    47  C    0.011411
    48  C   -0.022679
    49  C   -0.016526
    50  C    0.006626
    51  C    0.015965
    52  C   -0.019720
    53  C   -0.007542
    54  C    0.027149
    55  C   -0.010034
    56  C   -0.001620
    57  C    0.009531
    58  C    0.012587
    59  C    0.009718
    60  C   -0.015562
 -----------------------------------------------------------------

              Electrostatic Properties (Atomic Units)

 -----------------------------------------------------------------
    Center     Electric         -------- Electric Field --------
               Potential          X             Y             Z
 -----------------------------------------------------------------
    1 Atom    -14.662311
    2 Atom    -14.662240
    3 Atom    -14.662256
    4 Atom    -14.662266
    5 Atom    -14.662307
    6 Atom    -14.662269
    7 Atom    -14.662242
    8 Atom    -14.662243
    9 Atom    -14.662297
   10 Atom    -14.662289
   11 Atom    -14.662220
   12 Atom    -14.662275
   13 Atom    -14.662242
   14 Atom    -14.662223
   15 Atom    -14.662280
   16 Atom    -14.662300
   17 Atom    -14.662315
   18 Atom    -14.662226
   19 Atom    -14.662268
   20 Atom    -14.662192
   21 Atom    -14.662219
   22 Atom    -14.662212
   23 Atom    -14.662245
   24 Atom    -14.662295
   25 Atom    -14.662281
   26 Atom    -14.662316
   27 Atom    -14.662262
   28 Atom    -14.662214
   29 Atom    -14.662265
   30 Atom    -14.662257
   31 Atom    -14.662265
   32 Atom    -14.662262
   33 Atom    -14.662306
   34 Atom    -14.662260
   35 Atom    -14.662235
   36 Atom    -14.662284
   37 Atom    -14.662237
   38 Atom    -14.662204
   39 Atom    -14.662222
   40 Atom    -14.662227
   41 Atom    -14.662297
   42 Atom    -14.662299
   43 Atom    -14.662327
   44 Atom    -14.662323
   45 Atom    -14.662268
   46 Atom    -14.662289
   47 Atom    -14.662274
   48 Atom    -14.662243
   49 Atom    -14.662284
   50 Atom    -14.662274
   51 Atom    -14.662225
   52 Atom    -14.662271
   53 Atom    -14.662296
   54 Atom    -14.662249
   55 Atom    -14.662238
   56 Atom    -14.662206
   57 Atom    -14.662262
   58 Atom    -14.662249
   59 Atom    -14.662264
   60 Atom    -14.662284
 -----------------------------------------------------------------
 Leave Link  602 at Wed Feb 12 12:32:17 2014, MaxMem= 8257536000 cpu:     219.0
 (Enter /apps/gaussian/g09_c01/g09/l9999.exe)
 1\1\GINC-CX1-5-5-4\SP\RHF\6-31+G(d)\C60\SPF310\12-Feb-2014\0\\#p HF/6-
 31+g* sp nosymm pop=chelpg polar\\6-31+g* HF c60\\0,1\C,0,-1.183084,-0
 .375487,3.328905\C,0,-0.735677,1.007272,3.328108\C,0,-1.434892,1.96663
 7,2.594433\C,0,-2.610109,1.582561,1.830306\C,0,-3.039672,0.25494,1.830
 874\C,0,-2.311232,-0.743884,2.594819\C,0,-0.006254,-1.228403,3.32873\C
 ,0,1.168576,-0.37279,3.328439\C,0,0.717738,1.008786,3.327303\C,0,1.413
 998,1.969851,2.593466\C,0,-0.709566,2.967521,1.829811\C,0,-2.611039,2.
 346024,0.59368\C,0,-3.042649,1.751939,-0.593033\C,0,-3.48992,0.369054,
 -0.592448\C,0,-3.488569,-0.364292,0.594937\C,0,-3.037175,-1.745546,0.5
 9536\C,0,-2.310372,-1.980726,1.831852\C,0,-1.180424,-2.799545,1.831899
 \C,0,-0.005016,-2.415712,2.595573\C,0,2.298111,-0.738574,2.59489\C,0,2
 .299406,-1.975018,1.831037\C,0,1.171298,-2.796588,1.831496\C,0,0.72252
 6,-3.415778,0.595431\C,0,-0.730838,-3.417325,0.59546\C,0,-1.428803,-3.
 1915,-0.59145\C,0,-2.605842,-2.338923,-0.591594\C,0,-2.607544,-1.57560
 6,-1.828355\C,0,-3.040341,-0.24888,-1.828693\C,0,-1.436603,3.201837,0.
 593195\C,0,-0.010872,1.242029,-3.327394\C,0,-0.012165,2.429274,-2.5942
 72\C,0,1.163404,2.813241,-1.830631\C,0,2.293224,1.994305,-1.830425\C,0
 ,2.294399,0.757597,-2.593912\C,0,0.718649,-0.99363,-3.32688\C,0,-0.734
 79,-0.995229,-3.326095\C,0,-1.185691,0.386441,-3.327155\C,0,-2.315152,
 0.752209,-2.593552\C,0,-2.316573,1.988645,-1.829705\C,0,-1.188353,2.81
 0197,-1.830112\C,0,0.713835,3.430892,-0.594233\C,0,1.411825,3.205122,0
 .592746\C,0,2.588631,2.352553,0.592822\C,0,3.019997,1.759304,-0.594108
 \C,0,3.471388,0.377834,-0.593641\C,0,3.022737,-0.241286,-1.829704\C,0,
 2.593075,-1.568924,-1.828962\C,0,1.417817,-1.952966,-2.59314\C,0,-1.43
 1029,-1.956099,-2.592097\C,0,-0.702978,-2.955445,-1.828228\C,0,0.69254
 7,-2.953837,-1.828438\C,0,1.419554,-3.188302,-0.591922\C,0,2.594057,-2
 .332371,-0.592419\C,0,3.025443,-1.73826,0.59428\C,0,3.472778,-0.355411
 ,0.593729\C,0,3.023205,0.262546,1.830052\C,0,2.590402,1.589225,1.82975
 7\C,0,-0.739566,3.429395,-0.594195\C,0,0.685939,2.969155,1.82961\C,0,1
 .166036,0.389073,-3.327434\\Version=EM64L-G09RevC.01\HF=-2271.8572505\
 RMSD=8.881e-09\Dipole=-0.0000936,-0.0001425,0.0000132\Polar=525.053391
 2,-0.0159791,525.0615205,0.0437355,-0.0199488,525.0792034\HyperPolar=-
 0.0817987,-0.0945542,-0.0034693,0.00042,-0.0542593,-0.0194853,0.074212
 1,-0.0384508,0.055201,0.0299261\Quadrupole=-0.0024018,-0.0008639,0.003
 2657,0.0041969,-0.0018061,0.0006699\PG=C01 [X(C60)]\\@


 "THE ACADEMIC HIERARCHY"


 THE PRESIDENT:
   LEAPS TALL BUILDINGS IN A SINGLE BOUND,
     IS MORE POWERFUL THAN A LOCOMOTIVE,
       IS FASTER THAN A SPEEDING BULLET,
         WALKS ON WATER,
           GIVES POLICY TO GOD.

 THE VICE PRESIDENT FOR ACADEMIC AFFAIRS:
   LEAPS SHORT BUILDINGS IN A SINGLE BOUND,
     IS MORE POWERFUL THAN A SWITCH ENGINE,
       IS JUST AS FAST AS A SPEEDING BULLET,
         WALKS ON WATER IF SEA IS CALM,
           TALKS WITH GOD.

 PROFESSOR:
   LEAPS SHORT BUILDINGS WITH A RUNNING START AND FAVORABLE WINDS,
     IS ALMOST AS POWERFUL AS A SWITCH ENGINE,
       CAN FIRE A SPEEDING BULLET,
         WALKS ON WATER IN AN INDOOR SWIMMING POOL,
          TALKS WITH GOD IF SPECIAL REQUEST IS APPROVED.

 ASSOCIATE PROFESSOR:
   BARELY CLEARS A QUONSET HUT,
     LOSES TUG OF WAR WITH LOCOMOTIVE,
       MISFIRES FREQUENTLY,
         SWIMS WELL,
           IS OCCASIONALLY ADDRESSED BY GOD.

 ASSISTANT PROFESSOR:
   MAKES HIGH MARKS ON WALLS WHEN TRYING TO LEAP TALL BUILDINGS,
     IS RUN OVER BY LOCOMOTIVES,
       CAN SOMETIMES HANDLE A GUN WITHOUT INFLICTING SELF INJURY,
         DOG PADDLES,
           TALKS TO ANIMALS.

 GRADUATE STUDENT:
   RUNS INTO BUILDINGS,
     RECOGNIZES LOCOMOTIVES TWO OUT OF THREE TIMES,
       IS NOT ISSUED AMMUNITION,
         CAN STAY AFLOAT WITH A LIFE JACKET,
           TALKS TO WALLS.

 UNDERGRADUATE AND WORK STUDY STUDENT:
   FALLS OVER DOORSTEP WHEN TRYING TO ENTER BUILDINGS,
     SAYS, "LOOK AT THE CHOO-CHOO,"
       WETS HIMSELF WITH A WATER PISTOL,
        PLAYS IN MUD PUDDLES,
          MUMBLES TO HIMSELF.

 DEPARTMENT SECRETARY:
   LIFTS TALL BUILDINGS AND WALKS UNDER THEM,
     KICKS LOCOMOTIVES OFF THE TRACKS,
       CATCHES SPEEDING BULLETS IN HER TEETH AND EATS THEM,
         FREEZES WATER WITH A SINGLE GLANCE,
           IS GOD.
 Job cpu time:  3 days  8 hours 17 minutes 22.5 seconds.
 File lengths (MBytes):  RWF=    688 Int=      0 D2E=      0 Chk=     54 Scr=      1
 Normal termination of Gaussian 09 at Wed Feb 12 12:32:17 2014.
