 Entering Gaussian System, Link 0=g09
 Input=C60O_B3LYP_631GSTAR_opt.gjf
 Output=C60O_B3LYP_631GSTAR_opt.log
 Initial command:
 /apps/gaussian/g09_c01/g09/l1.exe /tmp/pbs.6339137.cx1b/Gau-17918.inp -scrdir=/tmp/pbs.6339137.cx1b/
 Entering Link 1 = /apps/gaussian/g09_c01/g09/l1.exe PID=     17926.
  
 Copyright (c) 1988,1990,1992,1993,1995,1998,2003,2009,2011,
            Gaussian, Inc.  All Rights Reserved.
  
 This is part of the Gaussian(R) 09 program.  It is based on
 the Gaussian(R) 03 system (copyright 2003, Gaussian, Inc.),
 the Gaussian(R) 98 system (copyright 1998, Gaussian, Inc.),
 the Gaussian(R) 94 system (copyright 1995, Gaussian, Inc.),
 the Gaussian 92(TM) system (copyright 1992, Gaussian, Inc.),
 the Gaussian 90(TM) system (copyright 1990, Gaussian, Inc.),
 the Gaussian 88(TM) system (copyright 1988, Gaussian, Inc.),
 the Gaussian 86(TM) system (copyright 1986, Carnegie Mellon
 University), and the Gaussian 82(TM) system (copyright 1983,
 Carnegie Mellon University). Gaussian is a federally registered
 trademark of Gaussian, Inc.
  
 This software contains proprietary and confidential information,
 including trade secrets, belonging to Gaussian, Inc.
  
 This software is provided under written license and may be
 used, copied, transmitted, or stored only in accord with that
 written license.
  
 The following legend is applicable only to US Government
 contracts under FAR:
  
                    RESTRICTED RIGHTS LEGEND
  
 Use, reproduction and disclosure by the US Government is
 subject to restrictions as set forth in subparagraphs (a)
 and (c) of the Commercial Computer Software - Restricted
 Rights clause in FAR 52.227-19.
  
 Gaussian, Inc.
 340 Quinnipiac St., Bldg. 40, Wallingford CT 06492
  
  
 ---------------------------------------------------------------
 Warning -- This program may not be used in any manner that
 competes with the business of Gaussian, Inc. or will provide
 assistance to any competitor of Gaussian, Inc.  The licensee
 of this program is prohibited from giving any competitor of
 Gaussian, Inc. access to this program.  By using this program,
 the user acknowledges that Gaussian, Inc. is engaged in the
 business of creating and licensing software in the field of
 computational chemistry and represents and warrants to the
 licensee that it is not a competitor of Gaussian, Inc. and that
 it will not use this program in any manner prohibited above.
 ---------------------------------------------------------------
  

 Cite this work as:
 Gaussian 09, Revision C.01,
 M. J. Frisch, G. W. Trucks, H. B. Schlegel, G. E. Scuseria, 
 M. A. Robb, J. R. Cheeseman, G. Scalmani, V. Barone, B. Mennucci, 
 G. A. Petersson, H. Nakatsuji, M. Caricato, X. Li, H. P. Hratchian, 
 A. F. Izmaylov, J. Bloino, G. Zheng, J. L. Sonnenberg, M. Hada, 
 M. Ehara, K. Toyota, R. Fukuda, J. Hasegawa, M. Ishida, T. Nakajima, 
 Y. Honda, O. Kitao, H. Nakai, T. Vreven, J. A. Montgomery, Jr., 
 J. E. Peralta, F. Ogliaro, M. Bearpark, J. J. Heyd, E. Brothers, 
 K. N. Kudin, V. N. Staroverov, T. Keith, R. Kobayashi, J. Normand, 
 K. Raghavachari, A. Rendell, J. C. Burant, S. S. Iyengar, J. Tomasi, 
 M. Cossi, N. Rega, J. M. Millam, M. Klene, J. E. Knox, J. B. Cross, 
 V. Bakken, C. Adamo, J. Jaramillo, R. Gomperts, R. E. Stratmann, 
 O. Yazyev, A. J. Austin, R. Cammi, C. Pomelli, J. W. Ochterski, 
 R. L. Martin, K. Morokuma, V. G. Zakrzewski, G. A. Voth, 
 P. Salvador, J. J. Dannenberg, S. Dapprich, A. D. Daniels, 
 O. Farkas, J. B. Foresman, J. V. Ortiz, J. Cioslowski, 
 and D. J. Fox, Gaussian, Inc., Wallingford CT, 2010.
 
 ******************************************
 Gaussian 09:  EM64L-G09RevC.01 23-Sep-2011
                24-Jan-2014 
 ******************************************
 %chk=C60O_B3LYP_631GSTAR_opt.chk
 %mem=11000MB
 %nprocshared=8
 Will use up to    8 processors via shared memory.
 ----------------------------
 #p opt am1 geom=connectivity
 ----------------------------
 1/14=-1,18=20,19=15,26=1,38=1,57=2/1,3;
 2/9=110,12=2,17=6,18=5,40=1/2;
 3/5=2,16=1,25=1,41=700000,71=1/1,2,3;
 4/35=1/1;
 5/5=2,35=1,38=5/2;
 6/7=2,8=2,9=2,10=2,28=1/1;
 7//1,2,3,16;
 1/14=-1,18=20,19=15/3(2);
 2/9=110/2;
 99//99;
 2/9=110/2;
 3/5=2,16=1,25=1,41=700000,71=1,135=20/1,2,3;
 4/5=5,16=3,35=1/1;
 5/5=2,35=1,38=5/2;
 7//1,2,3,16;
 1/14=-1,18=20,19=15/3(-5);
 2/9=110/2;
 6/7=2,8=2,9=2,10=2,19=2,28=1/1;
 99/9=1/99;
 Leave Link    1 at Fri Jan 24 19:26:23 2014, MaxMem= 1441792000 cpu:       0.2
 (Enter /apps/gaussian/g09_c01/g09/l101.exe)
 ------------
 C60O_AM1_opt
 ------------
 Charge =  0 Multiplicity = 1
 Symbolic Z-Matrix:
 C                    -0.01306   3.78945  -0.79385 
 C                     0.00304   3.80206   0.75163 
 C                    -1.21147   3.05751   1.40043 
 C                    -2.31141   2.53862   0.72426 
 C                    -2.2908    2.50834  -0.78546 
 C                    -1.18039   3.00045  -1.44326 
 C                    -0.68226   2.25924  -2.48745 
 C                     0.85315   2.35139  -2.53286 
 C                     1.25707   3.15677  -1.46098 
 C                     2.37271   2.72861  -0.77166 
 C                     2.35323   2.71761   0.77706 
 C                     1.22924   3.13655   1.43699 
 C                     0.79957   2.36426   2.51421 
 C                    -0.73704   2.30798   2.45951 
 C                    -1.37295   1.15645   2.83782 
 C                    -2.50589   0.69806   2.12512 
 C                    -3.08571   1.3897    1.12044 
 C                    -4.02403   0.79599  -0.03681 
 C                    -3.05633   1.36084  -1.18083 
 C                    -2.45687   0.6594   -2.16723 
 C                    -1.31009   1.10919  -2.86395 
 C                    -0.50736  -0.0595   -3.37486 
 C                     0.86132  -0.00756  -3.45032 
 C                     1.59061   1.25131  -2.98378 
 C                     2.7629    0.87202  -2.32033 
 C                     3.1428    1.60519  -1.20249 
 C                     3.6592    0.85668   0.02528 
 C                     3.1124    1.60611   1.23279 
 C                     2.71104   0.88768   2.35107 
 C                     1.52711   1.27384   2.98924 
 C                     0.79133   0.02903   3.46247 
 C                    -0.5764   -0.01567   3.36913 
 C                    -1.27253  -1.25149   2.91266 
 C                    -2.49427  -0.82486   2.1298 
 C                    -3.03953  -1.55157   1.13512 
 C                    -3.99908  -1.02714  -0.03152 
 C                    -3.01585  -1.56896  -1.17214 
 C                    -2.44883  -0.8575   -2.16158 
 C                    -1.21334  -1.29049  -2.91966 
 C                    -0.52506  -2.39728  -2.55941 
 C                     1.01196  -2.36879  -2.62267 
 C                     1.66389  -1.21512  -3.0519 
 C                     2.87968  -0.67922  -2.32304 
 C                     3.35905  -1.35912  -1.20458 
 C                     3.77224  -0.5532    0.03505 
 C                     3.33344  -1.34709   1.27698 
 C                     2.83045  -0.65746   2.37724 
 C                     1.60187  -1.18327   3.09245 
 C                     0.95945  -2.33883   2.66577 
 C                    -0.57604  -2.36509   2.57549 
 C                    -1.01377  -3.0767    1.45936 
 C                    -2.19491  -2.65573   0.75319 
 C                    -2.18016  -2.66623  -0.76244 
 C                    -0.98488  -3.09575  -1.4429 
 C                     0.2631   -3.58486  -0.66566 
 C                     0.24957  -3.57643   0.71013 
 C                     1.48694  -3.09822   1.48029 
 C                     2.63074  -2.64348   0.80218 
 C                     2.64598  -2.65184  -0.72685 
 C                     1.51598  -3.11456  -1.41939 
 O                    -5.21307  -0.1405   -0.04747 
 
 NAtoms=     61 NQM=        0 NQMF=       0 NMMI=     61 NMMIF=      0
                NMic=       0 NMicF=      0.
                    Isotopes and Nuclear Properties:
 (Nuclear quadrupole moments (NQMom) in fm**2, nuclear magnetic moments (NMagM)
  in nuclear magnetons)

  Atom         1           2           3           4           5           6           7           8           9          10
 IAtWgt=          12          12          12          12          12          12          12          12          12          12
 AtmWgt=  12.0000000  12.0000000  12.0000000  12.0000000  12.0000000  12.0000000  12.0000000  12.0000000  12.0000000  12.0000000
 NucSpn=           0           0           0           0           0           0           0           0           0           0
 AtZEff=   0.0000000   0.0000000   0.0000000   0.0000000   0.0000000   0.0000000   0.0000000   0.0000000   0.0000000   0.0000000
 NQMom=    0.0000000   0.0000000   0.0000000   0.0000000   0.0000000   0.0000000   0.0000000   0.0000000   0.0000000   0.0000000
 NMagM=    0.0000000   0.0000000   0.0000000   0.0000000   0.0000000   0.0000000   0.0000000   0.0000000   0.0000000   0.0000000

  Atom        11          12          13          14          15          16          17          18          19          20
 IAtWgt=          12          12          12          12          12          12          12          12          12          12
 AtmWgt=  12.0000000  12.0000000  12.0000000  12.0000000  12.0000000  12.0000000  12.0000000  12.0000000  12.0000000  12.0000000
 NucSpn=           0           0           0           0           0           0           0           0           0           0
 AtZEff=   0.0000000   0.0000000   0.0000000   0.0000000   0.0000000   0.0000000   0.0000000   0.0000000   0.0000000   0.0000000
 NQMom=    0.0000000   0.0000000   0.0000000   0.0000000   0.0000000   0.0000000   0.0000000   0.0000000   0.0000000   0.0000000
 NMagM=    0.0000000   0.0000000   0.0000000   0.0000000   0.0000000   0.0000000   0.0000000   0.0000000   0.0000000   0.0000000

  Atom        21          22          23          24          25          26          27          28          29          30
 IAtWgt=          12          12          12          12          12          12          12          12          12          12
 AtmWgt=  12.0000000  12.0000000  12.0000000  12.0000000  12.0000000  12.0000000  12.0000000  12.0000000  12.0000000  12.0000000
 NucSpn=           0           0           0           0           0           0           0           0           0           0
 AtZEff=   0.0000000   0.0000000   0.0000000   0.0000000   0.0000000   0.0000000   0.0000000   0.0000000   0.0000000   0.0000000
 NQMom=    0.0000000   0.0000000   0.0000000   0.0000000   0.0000000   0.0000000   0.0000000   0.0000000   0.0000000   0.0000000
 NMagM=    0.0000000   0.0000000   0.0000000   0.0000000   0.0000000   0.0000000   0.0000000   0.0000000   0.0000000   0.0000000

  Atom        31          32          33          34          35          36          37          38          39          40
 IAtWgt=          12          12          12          12          12          12          12          12          12          12
 AtmWgt=  12.0000000  12.0000000  12.0000000  12.0000000  12.0000000  12.0000000  12.0000000  12.0000000  12.0000000  12.0000000
 NucSpn=           0           0           0           0           0           0           0           0           0           0
 AtZEff=   0.0000000   0.0000000   0.0000000   0.0000000   0.0000000   0.0000000   0.0000000   0.0000000   0.0000000   0.0000000
 NQMom=    0.0000000   0.0000000   0.0000000   0.0000000   0.0000000   0.0000000   0.0000000   0.0000000   0.0000000   0.0000000
 NMagM=    0.0000000   0.0000000   0.0000000   0.0000000   0.0000000   0.0000000   0.0000000   0.0000000   0.0000000   0.0000000

  Atom        41          42          43          44          45          46          47          48          49          50
 IAtWgt=          12          12          12          12          12          12          12          12          12          12
 AtmWgt=  12.0000000  12.0000000  12.0000000  12.0000000  12.0000000  12.0000000  12.0000000  12.0000000  12.0000000  12.0000000
 NucSpn=           0           0           0           0           0           0           0           0           0           0
 AtZEff=   0.0000000   0.0000000   0.0000000   0.0000000   0.0000000   0.0000000   0.0000000   0.0000000   0.0000000   0.0000000
 NQMom=    0.0000000   0.0000000   0.0000000   0.0000000   0.0000000   0.0000000   0.0000000   0.0000000   0.0000000   0.0000000
 NMagM=    0.0000000   0.0000000   0.0000000   0.0000000   0.0000000   0.0000000   0.0000000   0.0000000   0.0000000   0.0000000

  Atom        51          52          53          54          55          56          57          58          59          60
 IAtWgt=          12          12          12          12          12          12          12          12          12          12
 AtmWgt=  12.0000000  12.0000000  12.0000000  12.0000000  12.0000000  12.0000000  12.0000000  12.0000000  12.0000000  12.0000000
 NucSpn=           0           0           0           0           0           0           0           0           0           0
 AtZEff=   0.0000000   0.0000000   0.0000000   0.0000000   0.0000000   0.0000000   0.0000000   0.0000000   0.0000000   0.0000000
 NQMom=    0.0000000   0.0000000   0.0000000   0.0000000   0.0000000   0.0000000   0.0000000   0.0000000   0.0000000   0.0000000
 NMagM=    0.0000000   0.0000000   0.0000000   0.0000000   0.0000000   0.0000000   0.0000000   0.0000000   0.0000000   0.0000000

  Atom        61
 IAtWgt=          16
 AtmWgt=  15.9949146
 NucSpn=           0
 AtZEff=   0.0000000
 NQMom=    0.0000000
 NMagM=    0.0000000
 Leave Link  101 at Fri Jan 24 19:26:24 2014, MaxMem= 1441792000 cpu:       2.1
 (Enter /apps/gaussian/g09_c01/g09/l103.exe)

 GradGradGradGradGradGradGradGradGradGradGradGradGradGradGradGradGradGrad
 Berny optimization.
 Initialization pass.
                           ----------------------------
                           !    Initial Parameters    !
                           ! (Angstroms and Degrees)  !
 --------------------------                            --------------------------
 ! Name  Definition              Value          Derivative Info.                !
 --------------------------------------------------------------------------------
 ! R1    R(1,2)                  1.5456         estimate D2E/DX2                !
 ! R2    R(1,6)                  1.5514         estimate D2E/DX2                !
 ! R3    R(1,9)                  1.568          estimate D2E/DX2                !
 ! R4    R(2,3)                  1.5654         estimate D2E/DX2                !
 ! R5    R(2,12)                 1.5544         estimate D2E/DX2                !
 ! R6    R(3,4)                  1.3915         estimate D2E/DX2                !
 ! R7    R(3,14)                 1.3815         estimate D2E/DX2                !
 ! R8    R(4,5)                  1.5102         estimate D2E/DX2                !
 ! R9    R(4,17)                 1.441          estimate D2E/DX2                !
 ! R10   R(5,6)                  1.3813         estimate D2E/DX2                !
 ! R11   R(5,19)                 1.435          estimate D2E/DX2                !
 ! R12   R(6,7)                  1.374          estimate D2E/DX2                !
 ! R13   R(7,8)                  1.5388         estimate D2E/DX2                !
 ! R14   R(7,21)                 1.3633         estimate D2E/DX2                !
 ! R15   R(8,9)                  1.4003         estimate D2E/DX2                !
 ! R16   R(8,24)                 1.3991         estimate D2E/DX2                !
 ! R17   R(9,10)                 1.3795         estimate D2E/DX2                !
 ! R18   R(10,11)                1.5489         estimate D2E/DX2                !
 ! R19   R(10,26)                1.4285         estimate D2E/DX2                !
 ! R20   R(11,12)                1.3691         estimate D2E/DX2                !
 ! R21   R(11,28)                1.4211         estimate D2E/DX2                !
 ! R22   R(12,13)                1.3934         estimate D2E/DX2                !
 ! R23   R(13,14)                1.5386         estimate D2E/DX2                !
 ! R24   R(13,30)                1.3943         estimate D2E/DX2                !
 ! R25   R(14,15)                1.3688         estimate D2E/DX2                !
 ! R26   R(15,16)                1.4148         estimate D2E/DX2                !
 ! R27   R(15,32)                1.5135         estimate D2E/DX2                !
 ! R28   R(16,17)                1.3505         estimate D2E/DX2                !
 ! R29   R(16,34)                1.523          estimate D2E/DX2                !
 ! R30   R(17,18)                1.6038         estimate D2E/DX2                !
 ! R31   R(18,19)                1.6013         estimate D2E/DX2                !
 ! R32   R(18,36)                1.8233         estimate D2E/DX2                !
 ! R33   R(18,61)                1.5136         estimate D2E/DX2                !
 ! R34   R(19,20)                1.3507         estimate D2E/DX2                !
 ! R35   R(20,21)                1.4152         estimate D2E/DX2                !
 ! R36   R(20,38)                1.5169         estimate D2E/DX2                !
 ! R37   R(21,22)                1.5071         estimate D2E/DX2                !
 ! R38   R(22,23)                1.3717         estimate D2E/DX2                !
 ! R39   R(22,39)                1.4903         estimate D2E/DX2                !
 ! R40   R(23,24)                1.5278         estimate D2E/DX2                !
 ! R41   R(23,42)                1.5037         estimate D2E/DX2                !
 ! R42   R(24,25)                1.3994         estimate D2E/DX2                !
 ! R43   R(25,26)                1.3898         estimate D2E/DX2                !
 ! R44   R(25,43)                1.5556         estimate D2E/DX2                !
 ! R45   R(26,27)                1.5279         estimate D2E/DX2                !
 ! R46   R(27,28)                1.5227         estimate D2E/DX2                !
 ! R47   R(27,45)                1.4144         estimate D2E/DX2                !
 ! R48   R(28,29)                1.3884         estimate D2E/DX2                !
 ! R49   R(29,30)                1.3993         estimate D2E/DX2                !
 ! R50   R(29,47)                1.55           estimate D2E/DX2                !
 ! R51   R(30,31)                1.5215         estimate D2E/DX2                !
 ! R52   R(31,32)                1.3716         estimate D2E/DX2                !
 ! R53   R(31,48)                1.5045         estimate D2E/DX2                !
 ! R54   R(32,33)                1.49           estimate D2E/DX2                !
 ! R55   R(33,34)                1.5125         estimate D2E/DX2                !
 ! R56   R(33,50)                1.3561         estimate D2E/DX2                !
 ! R57   R(34,35)                1.3471         estimate D2E/DX2                !
 ! R58   R(35,36)                1.599          estimate D2E/DX2                !
 ! R59   R(35,52)                1.4417         estimate D2E/DX2                !
 ! R60   R(36,37)                1.6004         estimate D2E/DX2                !
 ! R61   R(36,61)                1.5034         estimate D2E/DX2                !
 ! R62   R(37,38)                1.3441         estimate D2E/DX2                !
 ! R63   R(37,53)                1.4388         estimate D2E/DX2                !
 ! R64   R(38,39)                1.5128         estimate D2E/DX2                !
 ! R65   R(39,40)                1.3522         estimate D2E/DX2                !
 ! R66   R(40,41)                1.5386         estimate D2E/DX2                !
 ! R67   R(40,54)                1.395          estimate D2E/DX2                !
 ! R68   R(41,42)                1.3929         estimate D2E/DX2                !
 ! R69   R(41,60)                1.5027         estimate D2E/DX2                !
 ! R70   R(42,43)                1.5154         estimate D2E/DX2                !
 ! R71   R(43,44)                1.3939         estimate D2E/DX2                !
 ! R72   R(44,45)                1.5352         estimate D2E/DX2                !
 ! R73   R(44,59)                1.5517         estimate D2E/DX2                !
 ! R74   R(45,46)                1.5379         estimate D2E/DX2                !
 ! R75   R(46,47)                1.3925         estimate D2E/DX2                !
 ! R76   R(46,58)                1.5491         estimate D2E/DX2                !
 ! R77   R(47,48)                1.5157         estimate D2E/DX2                !
 ! R78   R(48,49)                1.3893         estimate D2E/DX2                !
 ! R79   R(49,50)                1.5384         estimate D2E/DX2                !
 ! R80   R(49,57)                1.5034         estimate D2E/DX2                !
 ! R81   R(50,51)                1.3942         estimate D2E/DX2                !
 ! R82   R(51,52)                1.4391         estimate D2E/DX2                !
 ! R83   R(51,56)                1.5515         estimate D2E/DX2                !
 ! R84   R(52,53)                1.5157         estimate D2E/DX2                !
 ! R85   R(53,54)                1.4409         estimate D2E/DX2                !
 ! R86   R(54,55)                1.5494         estimate D2E/DX2                !
 ! R87   R(55,56)                1.3759         estimate D2E/DX2                !
 ! R88   R(55,60)                1.5359         estimate D2E/DX2                !
 ! R89   R(56,57)                1.5339         estimate D2E/DX2                !
 ! R90   R(57,58)                1.4053         estimate D2E/DX2                !
 ! R91   R(58,59)                1.5291         estimate D2E/DX2                !
 ! R92   R(59,60)                1.4038         estimate D2E/DX2                !
 ! A1    A(2,1,6)              115.5018         estimate D2E/DX2                !
 ! A2    A(2,1,9)              114.8529         estimate D2E/DX2                !
 ! A3    A(6,1,9)              103.0728         estimate D2E/DX2                !
 ! A4    A(1,2,3)              113.7328         estimate D2E/DX2                !
 ! A5    A(1,2,12)             116.4613         estimate D2E/DX2                !
 ! A6    A(3,2,12)             103.0415         estimate D2E/DX2                !
 ! A7    A(2,3,4)              126.1047         estimate D2E/DX2                !
 ! A8    A(2,3,14)             108.0202         estimate D2E/DX2                !
 ! A9    A(4,3,14)             116.2099         estimate D2E/DX2                !
 ! A10   A(3,4,5)              118.8466         estimate D2E/DX2                !
 ! A11   A(3,4,17)             126.0475         estimate D2E/DX2                !
 ! A12   A(5,4,17)             105.438          estimate D2E/DX2                !
 ! A13   A(4,5,6)              118.6797         estimate D2E/DX2                !
 ! A14   A(4,5,19)             106.5112         estimate D2E/DX2                !
 ! A15   A(6,5,19)             125.6314         estimate D2E/DX2                !
 ! A16   A(1,6,5)              125.9254         estimate D2E/DX2                !
 ! A17   A(1,6,7)              108.6438         estimate D2E/DX2                !
 ! A18   A(5,6,7)              117.4622         estimate D2E/DX2                !
 ! A19   A(6,7,8)              110.6002         estimate D2E/DX2                !
 ! A20   A(6,7,21)             119.8679         estimate D2E/DX2                !
 ! A21   A(8,7,21)             120.1238         estimate D2E/DX2                !
 ! A22   A(7,8,9)              107.4381         estimate D2E/DX2                !
 ! A23   A(7,8,24)             119.2331         estimate D2E/DX2                !
 ! A24   A(9,8,24)             123.1563         estimate D2E/DX2                !
 ! A25   A(1,9,8)              108.9116         estimate D2E/DX2                !
 ! A26   A(1,9,10)             124.591          estimate D2E/DX2                !
 ! A27   A(8,9,10)             115.9294         estimate D2E/DX2                !
 ! A28   A(9,10,11)            119.4497         estimate D2E/DX2                !
 ! A29   A(9,10,26)            121.96           estimate D2E/DX2                !
 ! A30   A(11,10,26)           107.6228         estimate D2E/DX2                !
 ! A31   A(10,11,12)           119.3486         estimate D2E/DX2                !
 ! A32   A(10,11,28)           108.6328         estimate D2E/DX2                !
 ! A33   A(12,11,28)           121.557          estimate D2E/DX2                !
 ! A34   A(2,12,11)            124.4801         estimate D2E/DX2                !
 ! A35   A(2,12,13)            109.5677         estimate D2E/DX2                !
 ! A36   A(11,12,13)           117.1434         estimate D2E/DX2                !
 ! A37   A(12,13,14)           107.5033         estimate D2E/DX2                !
 ! A38   A(12,13,30)           122.4094         estimate D2E/DX2                !
 ! A39   A(14,13,30)           120.3069         estimate D2E/DX2                !
 ! A40   A(3,14,13)            110.5105         estimate D2E/DX2                !
 ! A41   A(3,14,15)            120.5822         estimate D2E/DX2                !
 ! A42   A(13,14,15)           119.0079         estimate D2E/DX2                !
 ! A43   A(14,15,16)           120.3569         estimate D2E/DX2                !
 ! A44   A(14,15,32)           120.2682         estimate D2E/DX2                !
 ! A45   A(16,15,32)           110.3266         estimate D2E/DX2                !
 ! A46   A(15,16,17)           123.5463         estimate D2E/DX2                !
 ! A47   A(15,16,34)           108.4412         estimate D2E/DX2                !
 ! A48   A(17,16,34)           121.1765         estimate D2E/DX2                !
 ! A49   A(4,17,16)            112.4675         estimate D2E/DX2                !
 ! A50   A(4,17,18)            114.2767         estimate D2E/DX2                !
 ! A51   A(16,17,18)           126.7538         estimate D2E/DX2                !
 ! A52   A(17,18,19)            91.7973         estimate D2E/DX2                !
 ! A53   A(17,18,36)           111.1036         estimate D2E/DX2                !
 ! A54   A(17,18,61)           133.9268         estimate D2E/DX2                !
 ! A55   A(19,18,36)           110.2733         estimate D2E/DX2                !
 ! A56   A(19,18,61)           133.4675         estimate D2E/DX2                !
 ! A57   A(5,19,18)            114.0552         estimate D2E/DX2                !
 ! A58   A(5,19,20)            112.3172         estimate D2E/DX2                !
 ! A59   A(18,19,20)           127.3553         estimate D2E/DX2                !
 ! A60   A(19,20,21)           123.6497         estimate D2E/DX2                !
 ! A61   A(19,20,38)           121.2615         estimate D2E/DX2                !
 ! A62   A(21,20,38)           108.3823         estimate D2E/DX2                !
 ! A63   A(7,21,20)            120.3533         estimate D2E/DX2                !
 ! A64   A(7,21,22)            120.166          estimate D2E/DX2                !
 ! A65   A(20,21,22)           110.6127         estimate D2E/DX2                !
 ! A66   A(21,22,23)           121.3819         estimate D2E/DX2                !
 ! A67   A(21,22,39)           106.5392         estimate D2E/DX2                !
 ! A68   A(23,22,39)           121.3822         estimate D2E/DX2                !
 ! A69   A(22,23,24)           119.3851         estimate D2E/DX2                !
 ! A70   A(22,23,42)           119.1805         estimate D2E/DX2                !
 ! A71   A(24,23,42)           109.0269         estimate D2E/DX2                !
 ! A72   A(8,24,23)            119.6488         estimate D2E/DX2                !
 ! A73   A(8,24,25)            120.1249         estimate D2E/DX2                !
 ! A74   A(23,24,25)           108.7426         estimate D2E/DX2                !
 ! A75   A(24,25,26)           117.8621         estimate D2E/DX2                !
 ! A76   A(24,25,43)           109.4108         estimate D2E/DX2                !
 ! A77   A(26,25,43)           120.4605         estimate D2E/DX2                !
 ! A78   A(10,26,25)           120.6701         estimate D2E/DX2                !
 ! A79   A(10,26,27)           108.9724         estimate D2E/DX2                !
 ! A80   A(25,26,27)           118.705          estimate D2E/DX2                !
 ! A81   A(26,27,28)           105.9472         estimate D2E/DX2                !
 ! A82   A(26,27,45)           121.3917         estimate D2E/DX2                !
 ! A83   A(28,27,45)           120.9178         estimate D2E/DX2                !
 ! A84   A(11,28,27)           108.8128         estimate D2E/DX2                !
 ! A85   A(11,28,29)           120.5691         estimate D2E/DX2                !
 ! A86   A(27,28,29)           119.1977         estimate D2E/DX2                !
 ! A87   A(28,29,30)           117.9761         estimate D2E/DX2                !
 ! A88   A(28,29,47)           120.4741         estimate D2E/DX2                !
 ! A89   A(30,29,47)           109.4257         estimate D2E/DX2                !
 ! A90   A(13,30,29)           120.1282         estimate D2E/DX2                !
 ! A91   A(13,30,31)           119.5702         estimate D2E/DX2                !
 ! A92   A(29,30,31)           108.9796         estimate D2E/DX2                !
 ! A93   A(30,31,32)           119.1906         estimate D2E/DX2                !
 ! A94   A(30,31,48)           108.7975         estimate D2E/DX2                !
 ! A95   A(32,31,48)           119.6176         estimate D2E/DX2                !
 ! A96   A(15,32,31)           121.5641         estimate D2E/DX2                !
 ! A97   A(15,32,33)           106.792          estimate D2E/DX2                !
 ! A98   A(31,32,33)           120.9127         estimate D2E/DX2                !
 ! A99   A(32,33,34)           107.578          estimate D2E/DX2                !
 ! A100  A(32,33,50)           121.1524         estimate D2E/DX2                !
 ! A101  A(34,33,50)           121.1868         estimate D2E/DX2                !
 ! A102  A(16,34,33)           106.8472         estimate D2E/DX2                !
 ! A103  A(16,34,35)           122.2806         estimate D2E/DX2                !
 ! A104  A(33,34,35)           123.8467         estimate D2E/DX2                !
 ! A105  A(34,35,36)           127.2056         estimate D2E/DX2                !
 ! A106  A(34,35,52)           111.8163         estimate D2E/DX2                !
 ! A107  A(36,35,52)           114.172          estimate D2E/DX2                !
 ! A108  A(18,36,35)           109.7715         estimate D2E/DX2                !
 ! A109  A(18,36,37)           110.1733         estimate D2E/DX2                !
 ! A110  A(35,36,37)            92.3084         estimate D2E/DX2                !
 ! A111  A(35,36,61)           133.2941         estimate D2E/DX2                !
 ! A112  A(37,36,61)           133.4884         estimate D2E/DX2                !
 ! A113  A(36,37,38)           127.2003         estimate D2E/DX2                !
 ! A114  A(36,37,53)           114.3352         estimate D2E/DX2                !
 ! A115  A(38,37,53)           111.6077         estimate D2E/DX2                !
 ! A116  A(20,38,37)           121.9921         estimate D2E/DX2                !
 ! A117  A(20,38,39)           106.7782         estimate D2E/DX2                !
 ! A118  A(37,38,39)           124.1874         estimate D2E/DX2                !
 ! A119  A(22,39,38)           107.6698         estimate D2E/DX2                !
 ! A120  A(22,39,40)           121.0871         estimate D2E/DX2                !
 ! A121  A(38,39,40)           121.0948         estimate D2E/DX2                !
 ! A122  A(39,40,41)           118.8403         estimate D2E/DX2                !
 ! A123  A(39,40,54)           117.0831         estimate D2E/DX2                !
 ! A124  A(41,40,54)           111.8066         estimate D2E/DX2                !
 ! A125  A(40,41,42)           119.7072         estimate D2E/DX2                !
 ! A126  A(40,41,60)           107.0351         estimate D2E/DX2                !
 ! A127  A(42,41,60)           120.0542         estimate D2E/DX2                !
 ! A128  A(23,42,41)           119.8            estimate D2E/DX2                !
 ! A129  A(23,42,43)           105.7624         estimate D2E/DX2                !
 ! A130  A(41,42,43)           121.3433         estimate D2E/DX2                !
 ! A131  A(25,43,42)           107.052          estimate D2E/DX2                !
 ! A132  A(25,43,44)           120.7172         estimate D2E/DX2                !
 ! A133  A(42,43,44)           119.2964         estimate D2E/DX2                !
 ! A134  A(43,44,45)           118.973          estimate D2E/DX2                !
 ! A135  A(43,44,59)           119.6923         estimate D2E/DX2                !
 ! A136  A(45,44,59)           108.2051         estimate D2E/DX2                !
 ! A137  A(27,45,44)           119.7476         estimate D2E/DX2                !
 ! A138  A(27,45,46)           119.8226         estimate D2E/DX2                !
 ! A139  A(44,45,46)           107.7146         estimate D2E/DX2                !
 ! A140  A(45,46,47)           119.0425         estimate D2E/DX2                !
 ! A141  A(45,46,58)           108.295          estimate D2E/DX2                !
 ! A142  A(47,46,58)           119.5209         estimate D2E/DX2                !
 ! A143  A(29,47,46)           120.5427         estimate D2E/DX2                !
 ! A144  A(29,47,48)           106.9387         estimate D2E/DX2                !
 ! A145  A(46,47,48)           119.5908         estimate D2E/DX2                !
 ! A146  A(31,48,47)           105.8548         estimate D2E/DX2                !
 ! A147  A(31,48,49)           119.7775         estimate D2E/DX2                !
 ! A148  A(47,48,49)           121.2281         estimate D2E/DX2                !
 ! A149  A(48,49,50)           119.589          estimate D2E/DX2                !
 ! A150  A(48,49,57)           120.0037         estimate D2E/DX2                !
 ! A151  A(50,49,57)           107.176          estimate D2E/DX2                !
 ! A152  A(33,50,49)           118.9497         estimate D2E/DX2                !
 ! A153  A(33,50,51)           117.1903         estimate D2E/DX2                !
 ! A154  A(49,50,51)           111.6589         estimate D2E/DX2                !
 ! A155  A(50,51,52)           120.0811         estimate D2E/DX2                !
 ! A156  A(50,51,56)           107.178          estimate D2E/DX2                !
 ! A157  A(52,51,56)           121.7074         estimate D2E/DX2                !
 ! A158  A(35,52,51)           125.0921         estimate D2E/DX2                !
 ! A159  A(35,52,53)           106.0158         estimate D2E/DX2                !
 ! A160  A(51,52,53)           118.7282         estimate D2E/DX2                !
 ! A161  A(37,53,52)           105.89           estimate D2E/DX2                !
 ! A162  A(37,53,54)           125.076          estimate D2E/DX2                !
 ! A163  A(52,53,54)           118.8385         estimate D2E/DX2                !
 ! A164  A(40,54,53)           120.1434         estimate D2E/DX2                !
 ! A165  A(40,54,55)           107.1013         estimate D2E/DX2                !
 ! A166  A(53,54,55)           121.6917         estimate D2E/DX2                !
 ! A167  A(54,55,56)           119.4549         estimate D2E/DX2                !
 ! A168  A(54,55,60)           108.3118         estimate D2E/DX2                !
 ! A169  A(56,55,60)           119.7917         estimate D2E/DX2                !
 ! A170  A(51,56,55)           119.5285         estimate D2E/DX2                !
 ! A171  A(51,56,57)           108.299          estimate D2E/DX2                !
 ! A172  A(55,56,57)           119.7382         estimate D2E/DX2                !
 ! A173  A(49,57,56)           105.685          estimate D2E/DX2                !
 ! A174  A(49,57,58)           120.173          estimate D2E/DX2                !
 ! A175  A(56,57,58)           121.0083         estimate D2E/DX2                !
 ! A176  A(46,58,57)           119.4788         estimate D2E/DX2                !
 ! A177  A(46,58,59)           107.8498         estimate D2E/DX2                !
 ! A178  A(57,58,59)           119.2648         estimate D2E/DX2                !
 ! A179  A(44,59,58)           107.9314         estimate D2E/DX2                !
 ! A180  A(44,59,60)           119.514          estimate D2E/DX2                !
 ! A181  A(58,59,60)           119.149          estimate D2E/DX2                !
 ! A182  A(41,60,55)           105.743          estimate D2E/DX2                !
 ! A183  A(41,60,59)           120.0955         estimate D2E/DX2                !
 ! A184  A(55,60,59)           121.0286         estimate D2E/DX2                !
 ! D1    D(6,1,2,3)             -2.4809         estimate D2E/DX2                !
 ! D2    D(6,1,2,12)           117.135          estimate D2E/DX2                !
 ! D3    D(9,1,2,3)           -122.2911         estimate D2E/DX2                !
 ! D4    D(9,1,2,12)            -2.6753         estimate D2E/DX2                !
 ! D5    D(2,1,6,5)             10.976          estimate D2E/DX2                !
 ! D6    D(2,1,6,7)           -136.7483         estimate D2E/DX2                !
 ! D7    D(9,1,6,5)            137.0489         estimate D2E/DX2                !
 ! D8    D(9,1,6,7)            -10.6754         estimate D2E/DX2                !
 ! D9    D(2,1,9,8)            137.898          estimate D2E/DX2                !
 ! D10   D(2,1,9,10)            -5.0162         estimate D2E/DX2                !
 ! D11   D(6,1,9,8)             11.4095         estimate D2E/DX2                !
 ! D12   D(6,1,9,10)          -131.5046         estimate D2E/DX2                !
 ! D13   D(1,2,3,4)             -6.8632         estimate D2E/DX2                !
 ! D14   D(1,2,3,14)           137.4391         estimate D2E/DX2                !
 ! D15   D(12,2,3,4)          -133.8393         estimate D2E/DX2                !
 ! D16   D(12,2,3,14)           10.463          estimate D2E/DX2                !
 ! D17   D(1,2,12,11)            9.336          estimate D2E/DX2                !
 ! D18   D(1,2,12,13)         -136.9154         estimate D2E/DX2                !
 ! D19   D(3,2,12,11)          134.5594         estimate D2E/DX2                !
 ! D20   D(3,2,12,13)          -11.6919         estimate D2E/DX2                !
 ! D21   D(2,3,4,5)              8.6165         estimate D2E/DX2                !
 ! D22   D(2,3,4,17)           149.5817         estimate D2E/DX2                !
 ! D23   D(14,3,4,5)          -133.1785         estimate D2E/DX2                !
 ! D24   D(14,3,4,17)            7.7867         estimate D2E/DX2                !
 ! D25   D(2,3,14,13)           -5.9193         estimate D2E/DX2                !
 ! D26   D(2,3,14,15)         -151.2542         estimate D2E/DX2                !
 ! D27   D(4,3,14,13)          142.381          estimate D2E/DX2                !
 ! D28   D(4,3,14,15)           -2.9539         estimate D2E/DX2                !
 ! D29   D(3,4,5,6)             -0.1509         estimate D2E/DX2                !
 ! D30   D(3,4,5,19)           148.5809         estimate D2E/DX2                !
 ! D31   D(17,4,5,6)          -148.2625         estimate D2E/DX2                !
 ! D32   D(17,4,5,19)            0.4693         estimate D2E/DX2                !
 ! D33   D(3,4,17,16)          -10.4547         estimate D2E/DX2                !
 ! D34   D(3,4,17,18)         -164.2036         estimate D2E/DX2                !
 ! D35   D(5,4,17,16)          134.635          estimate D2E/DX2                !
 ! D36   D(5,4,17,18)          -19.1139         estimate D2E/DX2                !
 ! D37   D(4,5,6,1)             -9.8432         estimate D2E/DX2                !
 ! D38   D(4,5,6,7)            135.3907         estimate D2E/DX2                !
 ! D39   D(19,5,6,1)          -152.0893         estimate D2E/DX2                !
 ! D40   D(19,5,6,7)            -6.8555         estimate D2E/DX2                !
 ! D41   D(4,5,19,18)           18.2987         estimate D2E/DX2                !
 ! D42   D(4,5,19,20)         -136.0567         estimate D2E/DX2                !
 ! D43   D(6,5,19,18)          164.2251         estimate D2E/DX2                !
 ! D44   D(6,5,19,20)            9.8697         estimate D2E/DX2                !
 ! D45   D(1,6,7,8)              6.4462         estimate D2E/DX2                !
 ! D46   D(1,6,7,21)           152.9721         estimate D2E/DX2                !
 ! D47   D(5,6,7,8)           -144.3883         estimate D2E/DX2                !
 ! D48   D(5,6,7,21)             2.1375         estimate D2E/DX2                !
 ! D49   D(6,7,8,9)              1.0511         estimate D2E/DX2                !
 ! D50   D(6,7,8,24)           147.4311         estimate D2E/DX2                !
 ! D51   D(21,7,8,9)          -145.3769         estimate D2E/DX2                !
 ! D52   D(21,7,8,24)            1.0031         estimate D2E/DX2                !
 ! D53   D(6,7,21,20)           -1.3132         estimate D2E/DX2                !
 ! D54   D(6,7,21,22)         -145.6284         estimate D2E/DX2                !
 ! D55   D(8,7,21,20)          142.0379         estimate D2E/DX2                !
 ! D56   D(8,7,21,22)           -2.2773         estimate D2E/DX2                !
 ! D57   D(7,8,9,1)             -8.0042         estimate D2E/DX2                !
 ! D58   D(7,8,9,10)           138.4928         estimate D2E/DX2                !
 ! D59   D(24,8,9,1)          -152.7551         estimate D2E/DX2                !
 ! D60   D(24,8,9,10)           -6.258          estimate D2E/DX2                !
 ! D61   D(7,8,24,23)            1.3096         estimate D2E/DX2                !
 ! D62   D(7,8,24,25)         -137.9563         estimate D2E/DX2                !
 ! D63   D(9,8,24,23)          142.1879         estimate D2E/DX2                !
 ! D64   D(9,8,24,25)            2.922          estimate D2E/DX2                !
 ! D65   D(1,9,10,11)            6.7627         estimate D2E/DX2                !
 ! D66   D(1,9,10,26)          146.408          estimate D2E/DX2                !
 ! D67   D(8,9,10,11)         -133.8681         estimate D2E/DX2                !
 ! D68   D(8,9,10,26)            5.7772         estimate D2E/DX2                !
 ! D69   D(9,10,11,12)          -0.1624         estimate D2E/DX2                !
 ! D70   D(9,10,11,28)         145.2447         estimate D2E/DX2                !
 ! D71   D(26,10,11,12)       -144.9635         estimate D2E/DX2                !
 ! D72   D(26,10,11,28)          0.4436         estimate D2E/DX2                !
 ! D73   D(9,10,26,25)          -2.1052         estimate D2E/DX2                !
 ! D74   D(9,10,26,27)        -144.7014         estimate D2E/DX2                !
 ! D75   D(11,10,26,25)        141.6231         estimate D2E/DX2                !
 ! D76   D(11,10,26,27)         -0.9731         estimate D2E/DX2                !
 ! D77   D(10,11,12,2)          -8.0432         estimate D2E/DX2                !
 ! D78   D(10,11,12,13)        135.9238         estimate D2E/DX2                !
 ! D79   D(28,11,12,2)        -148.8936         estimate D2E/DX2                !
 ! D80   D(28,11,12,13)         -4.9266         estimate D2E/DX2                !
 ! D81   D(10,11,28,27)          0.2761         estimate D2E/DX2                !
 ! D82   D(10,11,28,29)       -142.8323         estimate D2E/DX2                !
 ! D83   D(12,11,28,27)        144.7723         estimate D2E/DX2                !
 ! D84   D(12,11,28,29)          1.664          estimate D2E/DX2                !
 ! D85   D(2,12,13,14)           8.5778         estimate D2E/DX2                !
 ! D86   D(2,12,13,30)         154.3656         estimate D2E/DX2                !
 ! D87   D(11,12,13,14)       -140.4494         estimate D2E/DX2                !
 ! D88   D(11,12,13,30)          5.3384         estimate D2E/DX2                !
 ! D89   D(12,13,14,3)          -1.6437         estimate D2E/DX2                !
 ! D90   D(12,13,14,15)        144.3075         estimate D2E/DX2                !
 ! D91   D(30,13,14,3)        -148.2887         estimate D2E/DX2                !
 ! D92   D(30,13,14,15)         -2.3376         estimate D2E/DX2                !
 ! D93   D(12,13,30,29)         -2.3871         estimate D2E/DX2                !
 ! D94   D(12,13,30,31)       -141.9945         estimate D2E/DX2                !
 ! D95   D(14,13,30,29)        139.2156         estimate D2E/DX2                !
 ! D96   D(14,13,30,31)         -0.3918         estimate D2E/DX2                !
 ! D97   D(3,14,15,16)           1.719          estimate D2E/DX2                !
 ! D98   D(3,14,15,32)         145.612          estimate D2E/DX2                !
 ! D99   D(13,14,15,16)       -140.7538         estimate D2E/DX2                !
 ! D100  D(13,14,15,32)          3.1392         estimate D2E/DX2                !
 ! D101  D(14,15,16,17)         -5.1386         estimate D2E/DX2                !
 ! D102  D(14,15,16,34)        146.0075         estimate D2E/DX2                !
 ! D103  D(32,15,16,17)       -152.267          estimate D2E/DX2                !
 ! D104  D(32,15,16,34)         -1.1209         estimate D2E/DX2                !
 ! D105  D(14,15,32,31)         -1.2757         estimate D2E/DX2                !
 ! D106  D(14,15,32,33)       -145.8802         estimate D2E/DX2                !
 ! D107  D(16,15,32,31)        145.8862         estimate D2E/DX2                !
 ! D108  D(16,15,32,33)          1.2817         estimate D2E/DX2                !
 ! D109  D(15,16,17,4)           8.708          estimate D2E/DX2                !
 ! D110  D(15,16,17,18)        158.4943         estimate D2E/DX2                !
 ! D111  D(34,16,17,4)        -138.943          estimate D2E/DX2                !
 ! D112  D(34,16,17,18)         10.8432         estimate D2E/DX2                !
 ! D113  D(15,16,34,33)          0.5323         estimate D2E/DX2                !
 ! D114  D(15,16,34,35)       -151.0649         estimate D2E/DX2                !
 ! D115  D(17,16,34,33)        152.4921         estimate D2E/DX2                !
 ! D116  D(17,16,34,35)          0.8949         estimate D2E/DX2                !
 ! D117  D(4,17,18,19)          26.5194         estimate D2E/DX2                !
 ! D118  D(4,17,18,36)         139.0825         estimate D2E/DX2                !
 ! D119  D(4,17,18,61)        -163.1234         estimate D2E/DX2                !
 ! D120  D(16,17,18,19)       -122.8073         estimate D2E/DX2                !
 ! D121  D(16,17,18,36)        -10.2442         estimate D2E/DX2                !
 ! D122  D(16,17,18,61)         47.5499         estimate D2E/DX2                !
 ! D123  D(17,18,19,5)         -26.0832         estimate D2E/DX2                !
 ! D124  D(17,18,19,20)        123.6729         estimate D2E/DX2                !
 ! D125  D(36,18,19,5)        -139.3874         estimate D2E/DX2                !
 ! D126  D(36,18,19,20)         10.3687         estimate D2E/DX2                !
 ! D127  D(61,18,19,5)         163.4853         estimate D2E/DX2                !
 ! D128  D(61,18,19,20)        -46.7586         estimate D2E/DX2                !
 ! D129  D(17,18,36,35)         -0.0266         estimate D2E/DX2                !
 ! D130  D(17,18,36,37)       -100.2604         estimate D2E/DX2                !
 ! D131  D(19,18,36,35)        100.2498         estimate D2E/DX2                !
 ! D132  D(19,18,36,37)          0.016          estimate D2E/DX2                !
 ! D133  D(5,19,20,21)          -8.7038         estimate D2E/DX2                !
 ! D134  D(5,19,20,38)         139.2141         estimate D2E/DX2                !
 ! D135  D(18,19,20,21)       -158.8902         estimate D2E/DX2                !
 ! D136  D(18,19,20,38)        -10.9724         estimate D2E/DX2                !
 ! D137  D(19,20,21,7)           5.1847         estimate D2E/DX2                !
 ! D138  D(19,20,21,22)        152.5813         estimate D2E/DX2                !
 ! D139  D(38,20,21,7)        -146.2323         estimate D2E/DX2                !
 ! D140  D(38,20,21,22)          1.1642         estimate D2E/DX2                !
 ! D141  D(19,20,38,37)         -1.0169         estimate D2E/DX2                !
 ! D142  D(19,20,38,39)       -152.6985         estimate D2E/DX2                !
 ! D143  D(21,20,38,37)        151.2138         estimate D2E/DX2                !
 ! D144  D(21,20,38,39)         -0.4677         estimate D2E/DX2                !
 ! D145  D(7,21,22,23)           1.2284         estimate D2E/DX2                !
 ! D146  D(7,21,22,39)         146.0573         estimate D2E/DX2                !
 ! D147  D(20,21,22,23)       -146.2379         estimate D2E/DX2                !
 ! D148  D(20,21,22,39)         -1.4089         estimate D2E/DX2                !
 ! D149  D(21,22,23,24)          1.1054         estimate D2E/DX2                !
 ! D150  D(21,22,23,42)        139.0936         estimate D2E/DX2                !
 ! D151  D(39,22,23,24)       -138.5934         estimate D2E/DX2                !
 ! D152  D(39,22,23,42)         -0.6052         estimate D2E/DX2                !
 ! D153  D(21,22,39,38)          1.0653         estimate D2E/DX2                !
 ! D154  D(21,22,39,40)       -144.5229         estimate D2E/DX2                !
 ! D155  D(23,22,39,38)        145.8941         estimate D2E/DX2                !
 ! D156  D(23,22,39,40)          0.306          estimate D2E/DX2                !
 ! D157  D(22,23,24,8)          -2.35           estimate D2E/DX2                !
 ! D158  D(22,23,24,25)        141.0648         estimate D2E/DX2                !
 ! D159  D(42,23,24,8)        -144.1715         estimate D2E/DX2                !
 ! D160  D(42,23,24,25)         -0.7567         estimate D2E/DX2                !
 ! D161  D(22,23,42,41)          0.462          estimate D2E/DX2                !
 ! D162  D(22,23,42,43)       -141.213          estimate D2E/DX2                !
 ! D163  D(24,23,42,41)        142.3735         estimate D2E/DX2                !
 ! D164  D(24,23,42,43)          0.6985         estimate D2E/DX2                !
 ! D165  D(8,24,25,26)           1.1116         estimate D2E/DX2                !
 ! D166  D(8,24,25,43)         143.6957         estimate D2E/DX2                !
 ! D167  D(23,24,25,26)       -142.0993         estimate D2E/DX2                !
 ! D168  D(23,24,25,43)          0.4847         estimate D2E/DX2                !
 ! D169  D(24,25,26,10)         -1.5063         estimate D2E/DX2                !
 ! D170  D(24,25,26,27)        137.5804         estimate D2E/DX2                !
 ! D171  D(43,25,26,10)       -139.8377         estimate D2E/DX2                !
 ! D172  D(43,25,26,27)         -0.7511         estimate D2E/DX2                !
 ! D173  D(24,25,43,42)         -0.0498         estimate D2E/DX2                !
 ! D174  D(24,25,43,44)       -141.0912         estimate D2E/DX2                !
 ! D175  D(26,25,43,42)        141.402          estimate D2E/DX2                !
 ! D176  D(26,25,43,44)          0.3606         estimate D2E/DX2                !
 ! D177  D(10,26,27,28)          1.1318         estimate D2E/DX2                !
 ! D178  D(10,26,27,45)        144.2971         estimate D2E/DX2                !
 ! D179  D(25,26,27,28)       -142.3082         estimate D2E/DX2                !
 ! D180  D(25,26,27,45)          0.8572         estimate D2E/DX2                !
 ! D181  D(26,27,28,11)         -0.8457         estimate D2E/DX2                !
 ! D182  D(26,27,28,29)        142.8479         estimate D2E/DX2                !
 ! D183  D(45,27,28,11)       -144.2248         estimate D2E/DX2                !
 ! D184  D(45,27,28,29)         -0.5313         estimate D2E/DX2                !
 ! D185  D(26,27,45,44)         -0.5216         estimate D2E/DX2                !
 ! D186  D(26,27,45,46)       -137.5382         estimate D2E/DX2                !
 ! D187  D(28,27,45,44)        137.2637         estimate D2E/DX2                !
 ! D188  D(28,27,45,46)          0.2471         estimate D2E/DX2                !
 ! D189  D(11,28,29,30)          1.4394         estimate D2E/DX2                !
 ! D190  D(11,28,29,47)        139.9878         estimate D2E/DX2                !
 ! D191  D(27,28,29,30)       -137.948          estimate D2E/DX2                !
 ! D192  D(27,28,29,47)          0.6004         estimate D2E/DX2                !
 ! D193  D(28,29,30,13)         -1.0797         estimate D2E/DX2                !
 ! D194  D(28,29,30,31)        142.3349         estimate D2E/DX2                !
 ! D195  D(47,29,30,13)       -143.8524         estimate D2E/DX2                !
 ! D196  D(47,29,30,31)         -0.4378         estimate D2E/DX2                !
 ! D197  D(28,29,47,46)         -0.4217         estimate D2E/DX2                !
 ! D198  D(28,29,47,48)       -141.5965         estimate D2E/DX2                !
 ! D199  D(30,29,47,46)        141.2681         estimate D2E/DX2                !
 ! D200  D(30,29,47,48)          0.0933         estimate D2E/DX2                !
 ! D201  D(13,30,31,32)          2.2684         estimate D2E/DX2                !
 ! D202  D(13,30,31,48)        144.2819         estimate D2E/DX2                !
 ! D203  D(29,30,31,32)       -141.3828         estimate D2E/DX2                !
 ! D204  D(29,30,31,48)          0.6307         estimate D2E/DX2                !
 ! D205  D(30,31,32,15)         -1.4988         estimate D2E/DX2                !
 ! D206  D(30,31,32,33)        138.2358         estimate D2E/DX2                !
 ! D207  D(48,31,32,15)       -139.415          estimate D2E/DX2                !
 ! D208  D(48,31,32,33)          0.3196         estimate D2E/DX2                !
 ! D209  D(30,31,48,47)         -0.5499         estimate D2E/DX2                !
 ! D210  D(30,31,48,49)       -142.1267         estimate D2E/DX2                !
 ! D211  D(32,31,48,47)        141.275          estimate D2E/DX2                !
 ! D212  D(32,31,48,49)         -0.3018         estimate D2E/DX2                !
 ! D213  D(15,32,33,34)         -0.904          estimate D2E/DX2                !
 ! D214  D(15,32,33,50)        144.8087         estimate D2E/DX2                !
 ! D215  D(31,32,33,34)       -145.7878         estimate D2E/DX2                !
 ! D216  D(31,32,33,50)         -0.0751         estimate D2E/DX2                !
 ! D217  D(32,33,34,16)          0.2617         estimate D2E/DX2                !
 ! D218  D(32,33,34,35)        151.3012         estimate D2E/DX2                !
 ! D219  D(50,33,34,16)       -145.4369         estimate D2E/DX2                !
 ! D220  D(50,33,34,35)          5.6026         estimate D2E/DX2                !
 ! D221  D(32,33,50,49)         -0.185          estimate D2E/DX2                !
 ! D222  D(32,33,50,51)       -139.5042         estimate D2E/DX2                !
 ! D223  D(34,33,50,49)        140.93           estimate D2E/DX2                !
 ! D224  D(34,33,50,51)          1.6108         estimate D2E/DX2                !
 ! D225  D(16,34,35,36)        -12.3762         estimate D2E/DX2                !
 ! D226  D(16,34,35,52)        136.6811         estimate D2E/DX2                !
 ! D227  D(33,34,35,36)       -159.1364         estimate D2E/DX2                !
 ! D228  D(33,34,35,52)        -10.0791         estimate D2E/DX2                !
 ! D229  D(34,35,36,18)         10.7953         estimate D2E/DX2                !
 ! D230  D(34,35,36,37)        123.2066         estimate D2E/DX2                !
 ! D231  D(34,35,36,61)        -46.6247         estimate D2E/DX2                !
 ! D232  D(52,35,36,18)       -137.6554         estimate D2E/DX2                !
 ! D233  D(52,35,36,37)        -25.2441         estimate D2E/DX2                !
 ! D234  D(52,35,36,61)        164.9246         estimate D2E/DX2                !
 ! D235  D(34,35,52,51)          8.9557         estimate D2E/DX2                !
 ! D236  D(34,35,52,53)       -135.4181         estimate D2E/DX2                !
 ! D237  D(36,35,52,51)        162.2833         estimate D2E/DX2                !
 ! D238  D(36,35,52,53)         17.9095         estimate D2E/DX2                !
 ! D239  D(18,36,37,38)        -10.9208         estimate D2E/DX2                !
 ! D240  D(18,36,37,53)        137.3658         estimate D2E/DX2                !
 ! D241  D(35,36,37,38)       -122.9748         estimate D2E/DX2                !
 ! D242  D(35,36,37,53)         25.3118         estimate D2E/DX2                !
 ! D243  D(61,36,37,38)         46.8235         estimate D2E/DX2                !
 ! D244  D(61,36,37,53)       -164.8899         estimate D2E/DX2                !
 ! D245  D(36,37,38,20)         12.5269         estimate D2E/DX2                !
 ! D246  D(36,37,38,39)        159.2249         estimate D2E/DX2                !
 ! D247  D(53,37,38,20)       -136.4645         estimate D2E/DX2                !
 ! D248  D(53,37,38,39)         10.2335         estimate D2E/DX2                !
 ! D249  D(36,37,53,52)        -17.9254         estimate D2E/DX2                !
 ! D250  D(36,37,53,54)       -162.2846         estimate D2E/DX2                !
 ! D251  D(38,37,53,52)        135.3079         estimate D2E/DX2                !
 ! D252  D(38,37,53,54)         -9.0512         estimate D2E/DX2                !
 ! D253  D(20,38,39,22)         -0.4017         estimate D2E/DX2                !
 ! D254  D(20,38,39,40)        145.1832         estimate D2E/DX2                !
 ! D255  D(37,38,39,22)       -151.2997         estimate D2E/DX2                !
 ! D256  D(37,38,39,40)         -5.7147         estimate D2E/DX2                !
 ! D257  D(22,39,40,41)          0.1461         estimate D2E/DX2                !
 ! D258  D(22,39,40,54)        139.4246         estimate D2E/DX2                !
 ! D259  D(38,39,40,41)       -140.8901         estimate D2E/DX2                !
 ! D260  D(38,39,40,54)         -1.6116         estimate D2E/DX2                !
 ! D261  D(39,40,41,42)         -0.2769         estimate D2E/DX2                !
 ! D262  D(39,40,41,60)        140.7899         estimate D2E/DX2                !
 ! D263  D(54,40,41,42)       -141.5495         estimate D2E/DX2                !
 ! D264  D(54,40,41,60)         -0.4827         estimate D2E/DX2                !
 ! D265  D(39,40,54,53)          2.7851         estimate D2E/DX2                !
 ! D266  D(39,40,54,55)       -141.7293         estimate D2E/DX2                !
 ! D267  D(41,40,54,53)        144.796          estimate D2E/DX2                !
 ! D268  D(41,40,54,55)          0.2816         estimate D2E/DX2                !
 ! D269  D(40,41,42,23)         -0.022          estimate D2E/DX2                !
 ! D270  D(40,41,42,43)        135.6488         estimate D2E/DX2                !
 ! D271  D(60,41,42,23)       -136.0607         estimate D2E/DX2                !
 ! D272  D(60,41,42,43)         -0.3899         estimate D2E/DX2                !
 ! D273  D(40,41,60,55)          0.4586         estimate D2E/DX2                !
 ! D274  D(40,41,60,59)       -141.0207         estimate D2E/DX2                !
 ! D275  D(42,41,60,55)        141.3638         estimate D2E/DX2                !
 ! D276  D(42,41,60,59)         -0.1155         estimate D2E/DX2                !
 ! D277  D(23,42,43,25)         -0.4068         estimate D2E/DX2                !
 ! D278  D(23,42,43,44)        141.2904         estimate D2E/DX2                !
 ! D279  D(41,42,43,25)       -141.3515         estimate D2E/DX2                !
 ! D280  D(41,42,43,44)          0.3457         estimate D2E/DX2                !
 ! D281  D(25,43,44,45)         -0.0131         estimate D2E/DX2                !
 ! D282  D(25,43,44,59)        136.6068         estimate D2E/DX2                !
 ! D283  D(42,43,44,45)       -136.4403         estimate D2E/DX2                !
 ! D284  D(42,43,44,59)          0.1796         estimate D2E/DX2                !
 ! D285  D(43,44,45,27)          0.1098         estimate D2E/DX2                !
 ! D286  D(43,44,45,46)        141.7251         estimate D2E/DX2                !
 ! D287  D(59,44,45,27)       -140.9807         estimate D2E/DX2                !
 ! D288  D(59,44,45,46)          0.6345         estimate D2E/DX2                !
 ! D289  D(43,44,59,58)       -141.1568         estimate D2E/DX2                !
 ! D290  D(43,44,59,60)         -0.6704         estimate D2E/DX2                !
 ! D291  D(45,44,59,58)         -0.3945         estimate D2E/DX2                !
 ! D292  D(45,44,59,60)        140.092          estimate D2E/DX2                !
 ! D293  D(27,45,46,47)         -0.0588         estimate D2E/DX2                !
 ! D294  D(27,45,46,58)        140.9464         estimate D2E/DX2                !
 ! D295  D(44,45,46,47)       -141.64           estimate D2E/DX2                !
 ! D296  D(44,45,46,58)         -0.6348         estimate D2E/DX2                !
 ! D297  D(45,46,47,29)          0.1302         estimate D2E/DX2                !
 ! D298  D(45,46,47,48)        136.5237         estimate D2E/DX2                !
 ! D299  D(58,46,47,29)       -136.5099         estimate D2E/DX2                !
 ! D300  D(58,46,47,48)         -0.1164         estimate D2E/DX2                !
 ! D301  D(45,46,58,57)       -140.1395         estimate D2E/DX2                !
 ! D302  D(45,46,58,59)          0.3922         estimate D2E/DX2                !
 ! D303  D(47,46,58,57)          0.6476         estimate D2E/DX2                !
 ! D304  D(47,46,58,59)        141.1794         estimate D2E/DX2                !
 ! D305  D(29,47,48,31)          0.2893         estimate D2E/DX2                !
 ! D306  D(29,47,48,49)        141.1797         estimate D2E/DX2                !
 ! D307  D(46,47,48,31)       -141.3255         estimate D2E/DX2                !
 ! D308  D(46,47,48,49)         -0.4351         estimate D2E/DX2                !
 ! D309  D(31,48,49,50)          0.0441         estimate D2E/DX2                !
 ! D310  D(31,48,49,57)        136.1008         estimate D2E/DX2                !
 ! D311  D(47,48,49,50)       -135.5995         estimate D2E/DX2                !
 ! D312  D(47,48,49,57)          0.4572         estimate D2E/DX2                !
 ! D313  D(48,49,50,33)          0.1961         estimate D2E/DX2                !
 ! D314  D(48,49,50,51)        141.5978         estimate D2E/DX2                !
 ! D315  D(57,49,50,33)       -140.8272         estimate D2E/DX2                !
 ! D316  D(57,49,50,51)          0.5744         estimate D2E/DX2                !
 ! D317  D(48,49,57,56)       -141.3725         estimate D2E/DX2                !
 ! D318  D(48,49,57,58)          0.0902         estimate D2E/DX2                !
 ! D319  D(50,49,57,56)         -0.542          estimate D2E/DX2                !
 ! D320  D(50,49,57,58)        140.9207         estimate D2E/DX2                !
 ! D321  D(33,50,51,52)         -2.7667         estimate D2E/DX2                !
 ! D322  D(33,50,51,56)        141.8016         estimate D2E/DX2                !
 ! D323  D(49,50,51,52)       -144.9075         estimate D2E/DX2                !
 ! D324  D(49,50,51,56)         -0.3392         estimate D2E/DX2                !
 ! D325  D(50,51,52,35)         -2.7523         estimate D2E/DX2                !
 ! D326  D(50,51,52,53)        137.5694         estimate D2E/DX2                !
 ! D327  D(56,51,52,35)       -142.1319         estimate D2E/DX2                !
 ! D328  D(56,51,52,53)         -1.8101         estimate D2E/DX2                !
 ! D329  D(50,51,56,55)       -141.9913         estimate D2E/DX2                !
 ! D330  D(50,51,56,57)         -0.0139         estimate D2E/DX2                !
 ! D331  D(52,51,56,55)          1.8755         estimate D2E/DX2                !
 ! D332  D(52,51,56,57)        143.8529         estimate D2E/DX2                !
 ! D333  D(35,52,53,37)          0.0049         estimate D2E/DX2                !
 ! D334  D(35,52,53,54)        147.0218         estimate D2E/DX2                !
 ! D335  D(51,52,53,37)       -147.0718         estimate D2E/DX2                !
 ! D336  D(51,52,53,54)         -0.055          estimate D2E/DX2                !
 ! D337  D(37,53,54,40)          2.7963         estimate D2E/DX2                !
 ! D338  D(37,53,54,55)        142.0989         estimate D2E/DX2                !
 ! D339  D(52,53,54,40)       -137.4282         estimate D2E/DX2                !
 ! D340  D(52,53,54,55)          1.8744         estimate D2E/DX2                !
 ! D341  D(40,54,55,56)        142.0106         estimate D2E/DX2                !
 ! D342  D(40,54,55,60)          0.0177         estimate D2E/DX2                !
 ! D343  D(53,54,55,56)         -1.8345         estimate D2E/DX2                !
 ! D344  D(53,54,55,60)       -143.8274         estimate D2E/DX2                !
 ! D345  D(54,55,56,51)         -0.0438         estimate D2E/DX2                !
 ! D346  D(54,55,56,57)       -137.7039         estimate D2E/DX2                !
 ! D347  D(60,55,56,51)        137.6105         estimate D2E/DX2                !
 ! D348  D(60,55,56,57)         -0.0497         estimate D2E/DX2                !
 ! D349  D(54,55,60,41)         -0.3063         estimate D2E/DX2                !
 ! D350  D(54,55,60,59)        140.7309         estimate D2E/DX2                !
 ! D351  D(56,55,60,41)       -142.1492         estimate D2E/DX2                !
 ! D352  D(56,55,60,59)         -1.1119         estimate D2E/DX2                !
 ! D353  D(51,56,57,49)          0.3572         estimate D2E/DX2                !
 ! D354  D(51,56,57,58)       -140.7094         estimate D2E/DX2                !
 ! D355  D(55,56,57,49)        142.2411         estimate D2E/DX2                !
 ! D356  D(55,56,57,58)          1.1745         estimate D2E/DX2                !
 ! D357  D(49,57,58,46)         -0.6316         estimate D2E/DX2                !
 ! D358  D(49,57,58,59)       -136.718          estimate D2E/DX2                !
 ! D359  D(56,57,58,46)        134.9545         estimate D2E/DX2                !
 ! D360  D(56,57,58,59)         -1.1318         estimate D2E/DX2                !
 ! D361  D(46,58,59,44)          0.0011         estimate D2E/DX2                !
 ! D362  D(46,58,59,60)       -140.654          estimate D2E/DX2                !
 ! D363  D(57,58,59,44)        140.6318         estimate D2E/DX2                !
 ! D364  D(57,58,59,60)         -0.0232         estimate D2E/DX2                !
 ! D365  D(44,59,60,41)          0.6316         estimate D2E/DX2                !
 ! D366  D(44,59,60,55)       -134.979          estimate D2E/DX2                !
 ! D367  D(58,59,60,41)        136.7527         estimate D2E/DX2                !
 ! D368  D(58,59,60,55)          1.1421         estimate D2E/DX2                !
 --------------------------------------------------------------------------------
 Trust Radius=3.00D-01 FncErr=1.00D-07 GrdErr=1.00D-07
 Number of steps in this run=    366 maximum allowed number of steps=    366.
 GradGradGradGradGradGradGradGradGradGradGradGradGradGradGradGradGradGrad

 Leave Link  103 at Fri Jan 24 19:26:24 2014, MaxMem= 1441792000 cpu:       0.2
 (Enter /apps/gaussian/g09_c01/g09/l202.exe)
 Stoichiometry    C60O
 Framework group  C1[X(C60O)]
 Deg. of freedom   177
 Full point group                 C1      NOp   1
 Largest Abelian subgroup         C1      NOp   1
 Largest concise Abelian subgroup C1      NOp   1
                         Standard orientation:                         
 ---------------------------------------------------------------------
 Center     Atomic      Atomic             Coordinates (Angstroms)
 Number     Number       Type             X           Y           Z
 ---------------------------------------------------------------------
      1          6           0       -0.013057    3.789453   -0.793850
      2          6           0        0.003042    3.802065    0.751635
      3          6           0       -1.211473    3.057512    1.400429
      4          6           0       -2.311411    2.538619    0.724265
      5          6           0       -2.290801    2.508336   -0.785463
      6          6           0       -1.180386    3.000455   -1.443258
      7          6           0       -0.682264    2.259239   -2.487454
      8          6           0        0.853146    2.351390   -2.532857
      9          6           0        1.257065    3.156772   -1.460981
     10          6           0        2.372708    2.728612   -0.771658
     11          6           0        2.353232    2.717605    0.777059
     12          6           0        1.229239    3.136546    1.436988
     13          6           0        0.799569    2.364259    2.514209
     14          6           0       -0.737037    2.307980    2.459514
     15          6           0       -1.372948    1.156454    2.837821
     16          6           0       -2.505891    0.698058    2.125115
     17          6           0       -3.085705    1.389705    1.120443
     18          6           0       -4.024032    0.795993   -0.036807
     19          6           0       -3.056328    1.360839   -1.180835
     20          6           0       -2.456867    0.659400   -2.167227
     21          6           0       -1.310095    1.109188   -2.863947
     22          6           0       -0.507362   -0.059503   -3.374862
     23          6           0        0.861315   -0.007559   -3.450320
     24          6           0        1.590611    1.251311   -2.983784
     25          6           0        2.762899    0.872017   -2.320331
     26          6           0        3.142800    1.605186   -1.202493
     27          6           0        3.659196    0.856676    0.025284
     28          6           0        3.112399    1.606114    1.232788
     29          6           0        2.711038    0.887684    2.351071
     30          6           0        1.527106    1.273841    2.989236
     31          6           0        0.791326    0.029032    3.462468
     32          6           0       -0.576398   -0.015668    3.369127
     33          6           0       -1.272525   -1.251490    2.912663
     34          6           0       -2.494269   -0.824862    2.129797
     35          6           0       -3.039528   -1.551568    1.135119
     36          6           0       -3.999080   -1.027137   -0.031521
     37          6           0       -3.015847   -1.568962   -1.172138
     38          6           0       -2.448827   -0.857504   -2.161579
     39          6           0       -1.213338   -1.290486   -2.919659
     40          6           0       -0.525058   -2.397282   -2.559414
     41          6           0        1.011962   -2.368787   -2.622669
     42          6           0        1.663892   -1.215124   -3.051905
     43          6           0        2.879682   -0.679223   -2.323043
     44          6           0        3.359055   -1.359123   -1.204579
     45          6           0        3.772242   -0.553202    0.035046
     46          6           0        3.333445   -1.347090    1.276975
     47          6           0        2.830445   -0.657456    2.377236
     48          6           0        1.601870   -1.183270    3.092445
     49          6           0        0.959446   -2.338835    2.665774
     50          6           0       -0.576036   -2.365094    2.575490
     51          6           0       -1.013770   -3.076700    1.459356
     52          6           0       -2.194912   -2.655732    0.753193
     53          6           0       -2.180164   -2.666228   -0.762442
     54          6           0       -0.984878   -3.095745   -1.442897
     55          6           0        0.263099   -3.584862   -0.665657
     56          6           0        0.249575   -3.576427    0.710128
     57          6           0        1.486940   -3.098218    1.480293
     58          6           0        2.630737   -2.643475    0.802183
     59          6           0        2.645979   -2.651837   -0.726850
     60          6           0        1.515980   -3.114557   -1.419387
     61          8           0       -5.213066   -0.140500   -0.047465
 ---------------------------------------------------------------------
 Rotational constants (GHZ):      0.0823324      0.0756660      0.0725897
 Leave Link  202 at Fri Jan 24 19:26:24 2014, MaxMem= 1441792000 cpu:       0.1
 (Enter /apps/gaussian/g09_c01/g09/l301.exe)
 Standard basis: VSTO-6G (5D, 7F)
 Ernie: Thresh=  0.10000D-02 Tol=  0.10000D-05 Strict=F.
  NNHCO=     0 NNPyr=     0 NCTC=     0               EPep=         0.000000000
    EC=      3518.650845486  ECS=        19.170988045   EG=         2.004867095
   EHC=         0.000000000  EAt=      -278.010379729  AtH=        16.434746426
 EPDDG=         0.000000000  ECC=      3539.826700626 EAtT=       294.445126155
 There are   244 symmetry adapted basis functions of A   symmetry.
 Integral buffers will be    131072 words long.
 Regular integral format.
 Two-electron integral symmetry is turned off.
   244 basis functions,  1464 primitive gaussians,   244 cartesian basis functions
   123 alpha electrons      123 beta electrons
       nuclear repulsion energy      3834.2718267811 Hartrees.
 IExCor=    0 DFT=F Ex=HF Corr=None ExCW=0 ScaHFX=  1.000000
 ScaDFX=  1.000000  1.000000  1.000000  1.000000 ScalE2=  1.000000  1.000000
 IRadAn=      0 IRanWt=     -1 IRanGd=            0 ICorTp=0
 Leave Link  301 at Fri Jan 24 19:26:24 2014, MaxMem= 1441792000 cpu:       0.4
 (Enter /apps/gaussian/g09_c01/g09/l302.exe)
 Do NDO integrals.
 NPDir=0 NMtPBC=     1 NCelOv=     1 NCel=       1 NClECP=     1 NCelD=      1
         NCelK=      1 NCelE2=     1 NClLst=     1 CellRange=     0.0.
 One-electron integrals computed using PRISM.
 NBasis=   244 RedAO= F  NBF=   244
 NBsUse=   244 1.00D-04 NBFU=   244
 Leave Link  302 at Fri Jan 24 19:26:24 2014, MaxMem= 1441792000 cpu:       2.2
 (Enter /apps/gaussian/g09_c01/g09/l303.exe)
 DipDrv:  MaxL=1.
 Leave Link  303 at Fri Jan 24 19:26:24 2014, MaxMem= 1441792000 cpu:       0.2
 (Enter /apps/gaussian/g09_c01/g09/l401.exe)
 Simple Huckel Guess.
 Initial guess orbital symmetries:
       Occupied  (A) (A) (A) (A) (A) (A) (A) (A) (A) (A) (A) (A)
                 (A) (A) (A) (A) (A) (A) (A) (A) (A) (A) (A) (A)
                 (A) (A) (A) (A) (A) (A) (A) (A) (A) (A) (A) (A)
                 (A) (A) (A) (A) (A) (A) (A) (A) (A) (A) (A) (A)
                 (A) (A) (A) (A) (A) (A) (A) (A) (A) (A) (A) (A)
                 (A) (A) (A) (A) (A) (A) (A) (A) (A) (A) (A) (A)
                 (A) (A) (A) (A) (A) (A) (A) (A) (A) (A) (A) (A)
                 (A) (A) (A) (A) (A) (A) (A) (A) (A) (A) (A) (A)
                 (A) (A) (A) (A) (A) (A) (A) (A) (A) (A) (A) (A)
                 (A) (A) (A) (A) (A) (A) (A) (A) (A) (A) (A) (A)
                 (A) (A) (A)
       Virtual   (A) (A) (A) (A) (A) (A) (A) (A) (A) (A) (A) (A)
                 (A) (A) (A) (A) (A) (A) (A) (A) (A) (A) (A) (A)
                 (A) (A) (A) (A) (A) (A) (A) (A) (A) (A) (A) (A)
                 (A) (A) (A) (A) (A) (A) (A) (A) (A) (A) (A) (A)
                 (A) (A) (A) (A) (A) (A) (A) (A) (A) (A) (A) (A)
                 (A) (A) (A) (A) (A) (A) (A) (A) (A) (A) (A) (A)
                 (A) (A) (A) (A) (A) (A) (A) (A) (A) (A) (A) (A)
                 (A) (A) (A) (A) (A) (A) (A) (A) (A) (A) (A) (A)
                 (A) (A) (A) (A) (A) (A) (A) (A) (A) (A) (A) (A)
                 (A) (A) (A) (A) (A) (A) (A) (A) (A) (A) (A) (A)
                 (A)
 The electronic state of the initial guess is 1-A.
 Leave Link  401 at Fri Jan 24 19:26:24 2014, MaxMem= 1441792000 cpu:       0.9
 (Enter /apps/gaussian/g09_c01/g09/l502.exe)
 Closed shell SCF:
 Requested convergence on RMS density matrix=1.00D-08 within 128 cycles.
 Requested convergence on MAX density matrix=1.00D-06.
 Requested convergence on             energy=1.00D-06.
 No special actions if energy rises.
 Using DIIS extrapolation, IDIIS=  1040.
 Overlap will be assumed to be unity.
 Two-electron integral symmetry not used.
 Keep J ints in memory in canonical form, NReq=1245552.
 IEnd=      259183 IEndB=      259183 NGot=  1441792000 MDV=  1441422855
 LenX=  1441422855 LenY=  1441362878
 Symmetry not used in FoFDir.
 MinBra= 0 MaxBra= 1 Meth= 8.
 IRaf=       0 NMat=   1 IRICut=       1 DoRegI=T DoRafI=F ISym2E= 0 JSym2E=0.

 Cycle   1  Pass 1  IDiag  1:
 E=  3.61630760135904    
 DIIS: error= 6.91D-02 at cycle   1 NSaved=   1.
 NSaved= 1 IEnMin= 1 EnMin=  3.61630760135904     IErMin= 1 ErrMin= 6.91D-02
 ErrMax= 6.91D-02 EMaxC= 1.00D-01 BMatC= 5.69D-01 BMatP= 5.69D-01
 IDIUse=3 WtCom= 3.09D-01 WtEn= 6.91D-01
 Coeff-Com:  0.100D+01
 Coeff-En:   0.100D+01
 Coeff:      0.100D+01
 GapD=    2.000 DampG=2.000 DampE=0.500 DampFc=1.0000 IDamp=-1.
 RMSDP=4.87D-03 MaxDP=2.00D-01              OVMax= 0.00D+00

 Cycle   2  Pass 1  IDiag  1:
 E=  2.08812439110716     Delta-E=       -1.528183210252 Rises=F Damp=F
 DIIS: error= 2.31D-02 at cycle   2 NSaved=   2.
 NSaved= 2 IEnMin= 2 EnMin=  2.08812439110716     IErMin= 2 ErrMin= 2.31D-02
 ErrMax= 2.31D-02 EMaxC= 1.00D-01 BMatC= 4.50D-02 BMatP= 5.69D-01
 IDIUse=3 WtCom= 7.69D-01 WtEn= 2.31D-01
 Coeff-Com: -0.318D+00 0.132D+01
 Coeff-En:   0.000D+00 0.100D+01
 Coeff:     -0.244D+00 0.124D+01
 RMSDP=1.86D-03 MaxDP=6.53D-02 DE=-1.53D+00 OVMax= 0.00D+00

 Cycle   3  Pass 1  IDiag  1:
 E=  1.94490495024775     Delta-E=       -0.143219440859 Rises=F Damp=F
 DIIS: error= 3.16D-03 at cycle   3 NSaved=   3.
 NSaved= 3 IEnMin= 3 EnMin=  1.94490495024775     IErMin= 3 ErrMin= 3.16D-03
 ErrMax= 3.16D-03 EMaxC= 1.00D-01 BMatC= 1.95D-03 BMatP= 4.50D-02
 IDIUse=3 WtCom= 9.68D-01 WtEn= 3.16D-02
 Coeff-Com: -0.486D-01 0.591D-01 0.990D+00
 Coeff-En:   0.000D+00 0.000D+00 0.100D+01
 Coeff:     -0.471D-01 0.572D-01 0.990D+00
 RMSDP=5.37D-04 MaxDP=1.83D-02 DE=-1.43D-01 OVMax= 0.00D+00

 Cycle   4  Pass 1  IDiag  3:
 E=  1.93669139830945     Delta-E=       -0.008213551938 Rises=F Damp=F
 DIIS: error= 1.13D-03 at cycle   4 NSaved=   4.
 NSaved= 4 IEnMin= 4 EnMin=  1.93669139830945     IErMin= 4 ErrMin= 1.13D-03
 ErrMax= 1.13D-03 EMaxC= 1.00D-01 BMatC= 2.47D-04 BMatP= 1.95D-03
 IDIUse=3 WtCom= 9.89D-01 WtEn= 1.13D-02
 Coeff-Com:  0.266D-01-0.127D+00 0.101D+00 0.100D+01
 Coeff-En:   0.000D+00 0.000D+00 0.000D+00 0.100D+01
 Coeff:      0.263D-01-0.126D+00 0.997D-01 0.100D+01
 Gap=     0.240 Goal=   None    Shift=    0.000
 RMSDP=2.27D-04 MaxDP=5.57D-03 DE=-8.21D-03 OVMax= 0.00D+00

 Cycle   5  Pass 1  IDiag  3:
 E=  1.93519706244570     Delta-E=       -0.001494335864 Rises=F Damp=F
 DIIS: error= 4.88D-04 at cycle   5 NSaved=   5.
 NSaved= 5 IEnMin= 5 EnMin=  1.93519706244570     IErMin= 5 ErrMin= 4.88D-04
 ErrMax= 4.88D-04 EMaxC= 1.00D-01 BMatC= 3.51D-05 BMatP= 2.47D-04
 IDIUse=3 WtCom= 9.95D-01 WtEn= 4.88D-03
 Coeff-Com: -0.590D-02 0.410D-01-0.123D+00-0.377D+00 0.146D+01
 Coeff-En:   0.000D+00 0.000D+00 0.000D+00 0.000D+00 0.100D+01
 Coeff:     -0.587D-02 0.408D-01-0.122D+00-0.375D+00 0.146D+01
 Gap=     0.241 Goal=   None    Shift=    0.000
 RMSDP=1.50D-04 MaxDP=3.85D-03 DE=-1.49D-03 OVMax= 0.00D+00

 Cycle   6  Pass 1  IDiag  3:
 E=  1.93480194474705     Delta-E=       -0.000395117699 Rises=F Damp=F
 DIIS: error= 1.17D-04 at cycle   6 NSaved=   6.
 NSaved= 6 IEnMin= 6 EnMin=  1.93480194474705     IErMin= 6 ErrMin= 1.17D-04
 ErrMax= 1.17D-04 EMaxC= 1.00D-01 BMatC= 5.56D-06 BMatP= 3.51D-05
 IDIUse=3 WtCom= 9.99D-01 WtEn= 1.17D-03
 Coeff-Com: -0.506D-03 0.111D-02 0.206D-01-0.854D-02-0.477D+00 0.146D+01
 Coeff-En:   0.000D+00 0.000D+00 0.000D+00 0.000D+00 0.000D+00 0.100D+01
 Coeff:     -0.506D-03 0.111D-02 0.205D-01-0.853D-02-0.476D+00 0.146D+01
 Gap=     0.242 Goal=   None    Shift=    0.000
 RMSDP=7.22D-05 MaxDP=1.63D-03 DE=-3.95D-04 OVMax= 0.00D+00

[...]
 Alpha virt. eigenvalues --   -0.03279  -0.03275  -0.03188  -0.02071   0.02109
 Alpha virt. eigenvalues --    0.02595   0.02799   0.02824   0.03363   0.04511
 Alpha virt. eigenvalues --    0.04529   0.04740   0.05649   0.07002   0.07146
 Alpha virt. eigenvalues --    0.07345   0.08240   0.09237   0.09330   0.11865
 Alpha virt. eigenvalues --    0.12841   0.13104   0.13293   0.13594   0.15128
 Alpha virt. eigenvalues --    0.15396   0.15414   0.16104   0.16643   0.18165
 Alpha virt. eigenvalues --    0.18457   0.18511   0.18577   0.19334   0.19390
 Alpha virt. eigenvalues --    0.19564   0.19863   0.20267   0.20413   0.22955
 Alpha virt. eigenvalues --    0.23242   0.23446   0.23465   0.23590   0.25385
 Alpha virt. eigenvalues --    0.25395   0.25468   0.26156   0.28050   0.28396
 Alpha virt. eigenvalues --    0.28527   0.28872   0.28917   0.30146   0.31038
 Alpha virt. eigenvalues --    0.31178   0.32553   0.32752   0.33188   0.35515
 Alpha virt. eigenvalues --    0.35622   0.36069   0.36770   0.37498   0.38107
 Alpha virt. eigenvalues --    0.38335   0.38476   0.41892   0.42083   0.43583
 Alpha virt. eigenvalues --    0.43719   0.43903   0.44589   0.45380   0.45903
 Alpha virt. eigenvalues --    0.46003   0.46187   0.46340   0.46361   0.46474
 Alpha virt. eigenvalues --    0.46493   0.46573   0.46649   0.46734   0.46821
 Alpha virt. eigenvalues --    0.47465   0.47514   0.47554   0.48776   0.49293
 Alpha virt. eigenvalues --    0.49811   0.49969   0.50015   0.50151   0.50234
 Alpha virt. eigenvalues --    0.50288   0.50314   0.50529   0.50612   0.50958
 Alpha virt. eigenvalues --    0.51866   0.52039   0.52265   0.52330   0.52483
 Alpha virt. eigenvalues --    0.52574   0.52769   0.53053   0.53156   0.53267
 Alpha virt. eigenvalues --    0.53418   0.53447   0.53639   0.53677   0.53827
 Alpha virt. eigenvalues --    0.54209   0.54431   0.54577   0.54970   0.54982
 Alpha virt. eigenvalues --    0.54987   0.55004   0.55074   0.55084   0.55096
 Alpha virt. eigenvalues --    0.55472   0.55479   0.55545   0.55826   0.56021
 Alpha virt. eigenvalues --    0.56061   0.56090   0.56320   0.56509   0.56568
 Alpha virt. eigenvalues --    0.57013   0.57034   0.57301   0.57393   0.57398
 Alpha virt. eigenvalues --    0.57402   0.60074   0.60899   0.61852   0.61924
 Alpha virt. eigenvalues --    0.61949   0.62083   0.62102   0.62147   0.62159
 Alpha virt. eigenvalues --    0.62786   0.62814   0.62842   0.63393   0.63636
 Alpha virt. eigenvalues --    0.63833   0.63884   0.64034   0.64076   0.64228
 Alpha virt. eigenvalues --    0.64470   0.64627   0.64709   0.64725   0.64944
 Alpha virt. eigenvalues --    0.65038   0.65143   0.65449   0.65453   0.65514
 Alpha virt. eigenvalues --    0.65554   0.65680   0.65995   0.66062   0.67038
 Alpha virt. eigenvalues --    0.67333   0.67427   0.67429   0.67534   0.67671
 Alpha virt. eigenvalues --    0.67927   0.68823   0.68829   0.69077   0.69111
 Alpha virt. eigenvalues --    0.69245   0.69267   0.69313   0.69701   0.69703
 Alpha virt. eigenvalues --    0.69949   0.70053   0.70662   0.71312   0.71330
 Alpha virt. eigenvalues --    0.73650   0.74199   0.74324   0.74677   0.74739
 Alpha virt. eigenvalues --    0.74769   0.74956   0.75039   0.76708   0.76798
 Alpha virt. eigenvalues --    0.76954   0.77126   0.77807   0.77942   0.78060
 Alpha virt. eigenvalues --    0.78394   0.78759   0.79517   0.80336   0.80363
 Alpha virt. eigenvalues --    0.80419   0.80454   0.80502   0.80746   0.80819
 Alpha virt. eigenvalues --    0.80826   0.80840   0.80967   0.81111   0.81176
 Alpha virt. eigenvalues --    0.82296   0.82358   0.82586   0.83739   0.84768
 Alpha virt. eigenvalues --    0.85947   0.86344   0.87378   0.89412   0.89696
 Alpha virt. eigenvalues --    0.89802   0.90434   0.90584   0.90996   0.91117
 Alpha virt. eigenvalues --    0.91208   0.93099   0.93254   0.93431   0.98278
 Alpha virt. eigenvalues --    0.98785   0.99188   0.99298   0.99414   0.99858
 Alpha virt. eigenvalues --    0.99927   0.99996   1.00331   1.00527   1.01460
 Alpha virt. eigenvalues --    1.01649   1.01778   1.02076   1.02433   1.02465
 Alpha virt. eigenvalues --    1.02886   1.03331   1.03407   1.03689   1.03965
 Alpha virt. eigenvalues --    1.04190   1.04308   1.04923   1.05030   1.05865
 Alpha virt. eigenvalues --    1.05915   1.06461   1.06577   1.06687   1.07078
 Alpha virt. eigenvalues --    1.07305   1.07339   1.10564   1.10964   1.11576
 Alpha virt. eigenvalues --    1.11705   1.11790   1.12763   1.12784   1.13263
 Alpha virt. eigenvalues --    1.13297   1.13412   1.13418   1.13571   1.13572
 Alpha virt. eigenvalues --    1.13740   1.13980   1.14590   1.15302   1.15601
 Alpha virt. eigenvalues --    1.16035   1.16298   1.16635   1.17789   1.17931
 Alpha virt. eigenvalues --    1.18544   1.19286   1.19508   1.21877   1.22316
 Alpha virt. eigenvalues --    1.23048   1.23154   1.23180   1.23366   1.23402
 Alpha virt. eigenvalues --    1.23882   1.24294   1.24313   1.24371   1.24868
 Alpha virt. eigenvalues --    1.25934   1.26013   1.26730   1.28758   1.29123
 Alpha virt. eigenvalues --    1.29611   1.29691   1.32116   1.33224   1.33558
 Alpha virt. eigenvalues --    1.34382   1.34448   1.35092   1.35332   1.36129
 Alpha virt. eigenvalues --    1.36966   1.37470   1.38486   1.38523   1.41512
 Alpha virt. eigenvalues --    1.42490   1.42923   1.43845   1.43949   1.43990
 Alpha virt. eigenvalues --    1.44193   1.44207   1.44316   1.44480   1.44873
 Alpha virt. eigenvalues --    1.48035   1.48205   1.49166   1.49538   1.49768
 Alpha virt. eigenvalues --    1.49878   1.50723   1.51393   1.51515   1.52041
 Alpha virt. eigenvalues --    1.52075   1.52264   1.52465   1.54443   1.54677
 Alpha virt. eigenvalues --    1.55058   1.55120   1.55429   1.58680   1.59933
 Alpha virt. eigenvalues --    1.59952   1.60889   1.61452   1.61750   1.64016
 Alpha virt. eigenvalues --    1.64213   1.64250   1.64535   1.64626   1.66269
 Alpha virt. eigenvalues --    1.66757   1.67112   1.67653   1.68270   1.68665
 Alpha virt. eigenvalues --    1.68893   1.69022   1.69053   1.69225   1.69401
 Alpha virt. eigenvalues --    1.69411   1.69477   1.69864   1.70929   1.71027
 Alpha virt. eigenvalues --    1.71179   1.71410   1.71609   1.72004   1.72116
 Alpha virt. eigenvalues --    1.72808   1.72843   1.73168   1.73437   1.74082
 Alpha virt. eigenvalues --    1.74234   1.74307   1.74641   1.74734   1.74954
 Alpha virt. eigenvalues --    1.77744   1.78070   1.78165   1.78377   1.78382
 Alpha virt. eigenvalues --    1.78581   1.78827   1.79006   1.80737   1.80738
 Alpha virt. eigenvalues --    1.81771   1.83122   1.83951   1.85034   1.85451
 Alpha virt. eigenvalues --    1.86653   1.86831   1.87309   1.87396   1.88393
 Alpha virt. eigenvalues --    1.88825   1.89328   1.90326   1.90485   1.92224
 Alpha virt. eigenvalues --    1.92292   1.92587   1.93956   1.94124   1.95042
 Alpha virt. eigenvalues --    1.95513   1.95547   1.95674   1.95889   1.96280
 Alpha virt. eigenvalues --    1.96744   1.96807   1.96990   1.97314   1.97397
 Alpha virt. eigenvalues --    1.97578   1.97664   1.97806   1.98016   1.98176
 Alpha virt. eigenvalues --    1.98274   1.98354   1.98407   1.98968   1.99113
 Alpha virt. eigenvalues --    1.99551   1.99848   2.00273   2.00283   2.00887
 Alpha virt. eigenvalues --    2.01100   2.01542   2.01545   2.01715   2.02270
 Alpha virt. eigenvalues --    2.02961   2.03366   2.04955   2.05968   2.06032
 Alpha virt. eigenvalues --    2.06032   2.06240   2.07055   2.07250   2.07585
 Alpha virt. eigenvalues --    2.09728   2.09959   2.10217   2.11267   2.12826
 Alpha virt. eigenvalues --    2.13203   2.14138   2.15190   2.15490   2.16795
 Alpha virt. eigenvalues --    2.18383   2.18612   2.19205   2.20031   2.20188
 Alpha virt. eigenvalues --    2.20807   2.21233   2.22490   2.23304   2.23865
 Alpha virt. eigenvalues --    2.23922   2.24937   2.25155   2.25624   2.25656
 Alpha virt. eigenvalues --    2.26689   2.27626   2.28101   2.28301   2.28349
 Alpha virt. eigenvalues --    2.28730   2.28989   2.29597   2.29654   2.29815
 Alpha virt. eigenvalues --    2.30314   2.30497   2.30679   2.32858   2.33352
 Alpha virt. eigenvalues --    2.34785   2.34867   2.35195   2.36120   2.37190
 Alpha virt. eigenvalues --    2.37971   2.38670   2.40508   2.41274   2.42051
 Alpha virt. eigenvalues --    2.42228   2.42291   2.42792   2.42870   2.43160
 Alpha virt. eigenvalues --    2.43655   2.43791   2.44109   2.44109   2.44204
 Alpha virt. eigenvalues --    2.46236   2.47000   2.47000   2.47122   2.47516
 Alpha virt. eigenvalues --    2.47761   2.47864   2.48765   2.50985   2.52210
 Alpha virt. eigenvalues --    2.52220   2.53330   2.54096   2.54674   2.56278
 Alpha virt. eigenvalues --    2.57564   2.57649   2.57681   2.57797   2.58130
 Alpha virt. eigenvalues --    2.58276   2.58542   2.58707   2.59285   2.60545
 Alpha virt. eigenvalues --    2.60904   2.60994   2.61371   2.61427   2.61795
 Alpha virt. eigenvalues --    2.62477   2.62494   2.62890   2.63289   2.63457
 Alpha virt. eigenvalues --    2.64139   2.64724   2.64896   2.65854   2.66652
 Alpha virt. eigenvalues --    2.67026   2.68473   2.69200   2.69880   2.69941
 Alpha virt. eigenvalues --    2.70261   2.70369   2.70705   2.71795   2.72347
 Alpha virt. eigenvalues --    2.74111   2.74146   2.74165   2.74513   2.76494
 Alpha virt. eigenvalues --    2.77963   2.78290   2.78515   2.78831   2.79725
 Alpha virt. eigenvalues --    2.80347   2.81564   2.81663   2.82248   2.82496
 Alpha virt. eigenvalues --    2.82570   2.82820   2.83094   2.83171   2.84031
 Alpha virt. eigenvalues --    2.84294   2.85108   2.85132   2.85164   2.85202
 Alpha virt. eigenvalues --    2.85541   2.86909   2.87412   2.88265   2.89670
 Alpha virt. eigenvalues --    2.89767   2.90284   2.91662   2.93156   2.94446
 Alpha virt. eigenvalues --    2.94602   2.94715   2.95520   2.95627   2.97718
 Alpha virt. eigenvalues --    2.97767   2.98934   2.99571   2.99659   2.99867
 Alpha virt. eigenvalues --    3.00297   3.02884   3.03701   3.06982   3.07862
 Alpha virt. eigenvalues --    3.09100   3.09111   3.09690   3.10980   3.12308
 Alpha virt. eigenvalues --    3.12716   3.19249   3.19663   3.20926   3.21979
 Alpha virt. eigenvalues --    3.25602   3.26109   3.26381   3.26958   3.36953
 Alpha virt. eigenvalues --    3.37876   3.38392   3.38538   3.44585   3.47138
 Alpha virt. eigenvalues --    3.47582   3.51587   3.52063   3.52799   3.60992
 Alpha virt. eigenvalues --    3.94992   4.02325   4.03112   4.03284   4.04356
 Alpha virt. eigenvalues --    4.05122   4.05259   4.05543   4.05567   4.09497
 Alpha virt. eigenvalues --    4.10066   4.10285   4.11558   4.12327   4.13153
 Alpha virt. eigenvalues --    4.13988   4.18532   4.19592   4.19633   4.19899
 Alpha virt. eigenvalues --    4.20162   4.23244   4.24476   4.24816   4.25133
 Alpha virt. eigenvalues --    4.29179   4.33293   4.33875   4.36955   4.37666
 Alpha virt. eigenvalues --    4.37910   4.37924   4.37978   4.40061   4.49228
 Alpha virt. eigenvalues --    4.50302   4.51414   4.56765   4.56771   4.57006
 Alpha virt. eigenvalues --    4.64691   4.64915   4.65199   4.65212   4.67564
 Alpha virt. eigenvalues --    4.80751   4.81394   4.81977   4.82506   4.90408
 Alpha virt. eigenvalues --    4.90695   4.90871   4.91293   4.92809   5.11287
 Alpha virt. eigenvalues --    5.11529   5.11725   5.12307   5.25827   5.26254
 Alpha virt. eigenvalues --    5.26626
          Condensed to atoms (all electrons):
 Mulliken atomic charges:
              1
     1  C    0.001391
     2  C    0.001393
     3  C   -0.006898
     4  C    0.001912
     5  C    0.001911
     6  C   -0.006897
     7  C    0.000462
     8  C   -0.000053
     9  C   -0.000819
    10  C    0.000872
    11  C    0.000870
    12  C   -0.000817
    13  C   -0.000052
    14  C    0.000458
    15  C    0.000517
    16  C   -0.008572
    17  C    0.049577
    18  C    0.157758
    19  C    0.049578
    20  C   -0.008575
    21  C    0.000514
    22  C    0.001319
    23  C    0.000432
    24  C    0.000090
    25  C    0.000486
    26  C    0.000258
    27  C    0.000438
    28  C    0.000258
    29  C    0.000487
    30  C    0.000090
    31  C    0.000432
    32  C    0.001319
    33  C    0.000513
    34  C   -0.008578
    35  C    0.049576
    36  C    0.157780
    37  C    0.049574
    38  C   -0.008573
    39  C    0.000515
    40  C    0.000458
    41  C   -0.000055
    42  C    0.000092
    43  C    0.000482
    44  C    0.000258
    45  C    0.000445
    46  C    0.000258
    47  C    0.000482
    48  C    0.000091
    49  C   -0.000054
    50  C    0.000461
    51  C   -0.006899
    52  C    0.001916
    53  C    0.001916
    54  C   -0.006899
    55  C    0.001394
    56  C    0.001392
    57  C   -0.000819
    58  C    0.000873
    59  C    0.000873
    60  C   -0.000819
    61  O   -0.476792
 Sum of Mulliken atomic charges =   0.00000
 Mulliken charges with hydrogens summed into heavy atoms:
              1
     1  C    0.001391
     2  C    0.001393
     3  C   -0.006898
     4  C    0.001912
     5  C    0.001911
     6  C   -0.006897
     7  C    0.000462
     8  C   -0.000053
     9  C   -0.000819
    10  C    0.000872
    11  C    0.000870
    12  C   -0.000817
    13  C   -0.000052
    14  C    0.000458
    15  C    0.000517
    16  C   -0.008572
    17  C    0.049577
    18  C    0.157758
    19  C    0.049578
    20  C   -0.008575
    21  C    0.000514
    22  C    0.001319
    23  C    0.000432
    24  C    0.000090
    25  C    0.000486
    26  C    0.000258
    27  C    0.000438
    28  C    0.000258
    29  C    0.000487
    30  C    0.000090
    31  C    0.000432
    32  C    0.001319
    33  C    0.000513
    34  C   -0.008578
    35  C    0.049576
    36  C    0.157780
    37  C    0.049574
    38  C   -0.008573
    39  C    0.000515
    40  C    0.000458
    41  C   -0.000055
    42  C    0.000092
    43  C    0.000482
    44  C    0.000258
    45  C    0.000445
    46  C    0.000258
    47  C    0.000482
    48  C    0.000091
    49  C   -0.000054
    50  C    0.000461
    51  C   -0.006899
    52  C    0.001916
    53  C    0.001916
    54  C   -0.006899
    55  C    0.001394
    56  C    0.001392
    57  C   -0.000819
    58  C    0.000873
    59  C    0.000873
    60  C   -0.000819
    61  O   -0.476792
 Sum of Mulliken charges with hydrogens summed into heavy atoms =   0.00000
 Electronic spatial extent (au):  <R**2>=          17640.9227
 Charge=              0.0000 electrons
 Dipole moment (field-independent basis, Debye):
    X=              1.2700    Y=              0.0000    Z=              0.0000  Tot=              1.2700
 Quadrupole moment (field-independent basis, Debye-Ang):
   XX=           -338.0051   YY=           -327.8966   ZZ=           -328.4238
   XY=              0.0002   XZ=              0.0000   YZ=              0.0000
 Traceless Quadrupole moment (field-independent basis, Debye-Ang):
   XX=             -6.5633   YY=              3.5452   ZZ=              3.0180
   XY=              0.0002   XZ=              0.0000   YZ=              0.0000
 Octapole moment (field-independent basis, Debye-Ang**2):
  XXX=             32.1492  YYY=             -0.0002  ZZZ=              0.0000  XYY=            -14.3628
  XXY=             -0.0014  XXZ=             -0.0001  XZZ=             -9.3812  YZZ=              0.0005
  YYZ=              0.0000  XYZ=             -0.0002
 Hexadecapole moment (field-independent basis, Debye-Ang**3):
 XXXX=          -9653.8019 YYYY=          -8528.3141 ZZZZ=          -8471.8317 XXXY=              0.0051
 XXXZ=              0.0004 YYYX=             -0.0017 YYYZ=              0.0011 ZZZX=              0.0001
 ZZZY=             -0.0020 XXYY=          -2951.2519 XXZZ=          -2964.6403 YYZZ=          -2839.2979
 XXYZ=              0.0013 YYXZ=              0.0000 ZZXY=             -0.0005
 N-N= 8.632292499457D+03 E-N=-2.273221223062D+04  KE= 2.339609866785D+03
 No NMR shielding tensors so no spin-rotation constants.
 Leave Link  601 at Fri Jan 24 21:54:44 2014, MaxMem= 1441792000 cpu:      10.3
 (Enter /apps/gaussian/g09_c01/g09/l9999.exe)
 1\1\GINC-CX1-13-34-2\FOpt\RB3LYP\6-31G(d)\C60O1\SPF310\24-Jan-2014\0\\
 #p opt b3lyp/6-31g* geom=checkpoint\\C60O_B3LYP_631GSTAR_opt\\0,1\C,0.
 0087342998,3.4820916336,-0.7171649882\C,-0.0040251291,3.4900770392,0.6
 772724359\C,-1.1686550933,3.0005530238,1.3955943128\C,-2.2739380606,2.
 5153354113,0.692489186\C,-2.2606207937,2.5070034259,-0.7627514409\C,-1
 .1426021925,2.9842456619,-1.4510240249\C,-0.666688864,2.2703813429,-2.
 6141847378\C,0.7853873403,2.3197917153,-2.6055801903\C,1.2034473727,3.
 0697911238,-1.4320979981\C,2.3396240758,2.6791921867,-0.7209122244\C,2
 .326322536,2.687523619,0.7328780642\C,1.1773570561,3.0861189759,1.4186
 273368\C,0.7378135239,2.3495678547,2.5927778368\C,-0.7141834412,2.3001
 096344,2.5753713355\C,-1.3850197716,1.1480003818,2.9981387559\C,-2.543
 4807057,0.6649859553,2.2715685322\C,-2.9975847071,1.3585072961,1.15950
 64985\C,-3.5383942724,0.6512009899,-0.0361223939\C,-2.9757139546,1.344
 8267465,-1.2296575502\C,-2.501412437,0.6386571582,-2.3252062812\C,-1.3
 297956283,1.1134366777,-3.0359390956\C,-0.559147453,-0.0401278952,-3.4
 674953791\C,0.8352903087,0.0072382408,-3.4636202114\C,1.5219368296,1.2
 10048025,-3.0207364075\C,2.7052339793,0.805549565,-2.2837900447\C,3.10
 5888977,1.5243922875,-1.1559124508\C,3.5678635252,0.8192719155,0.02796
 26877\C,3.0843728317,1.5378593999,1.1950289928\C,2.663070046,0.8319410
 222,2.3235456743\C,1.4665271652,1.2447318383,3.0340281219\C,0.77176229
 4,0.0470045524,3.4780242451\C,-0.6225175158,-0.0004608323,3.4569181911
 \C,-1.3051843384,-1.2034427781,3.0123368076\C,-2.4934554328,-0.8089117
 184,2.2804796988\C,-2.8990001258,-1.544996277,1.1770430412\C,-3.486064
 9368,-0.8904678197,-0.0267884876\C,-2.8771415884,-1.5586770718,-1.2121
 168799\C,-2.4513872998,-0.8352397996,-2.3163035407\C,-1.2499631196,-1.
 2380068444,-3.0217230036\C,-0.5100929816,-2.3421458421,-2.5863252755\C
 ,0.9419849934,-2.2928503161,-2.5777198111\C,1.6017430876,-1.1407969217
 ,-3.0065226659\C,2.7545992595,-0.648113163,-2.2750125839\C,3.202603519
 4,-1.32446271,-1.1387061913\C,3.6152048047,-0.575400414,0.0363853662\C
 ,3.1810877753,-1.3109943112,1.2122315068\C,2.7124330287,-0.6217210026,
 2.3323268729\C,1.5463296166,-1.1061135245,3.0482135795\C,0.8944107866,
 -2.2630718274,2.6206310734\C,-0.557585911,-2.312419396,2.6032236671\C,
 -0.9630239456,-3.0562573827,1.4321725266\C,-2.0983756479,-2.6556288219
 ,0.7237155019\C,-2.0850599817,-2.6639646994,-0.7315254745\C,-0.9369738
 302,-3.0725634297,-1.4144444613\C,0.2451775505,-3.4822829555,-0.675108
 6908\C,0.2324168223,-3.4742973033,0.7193385393\C,1.383376497,-2.982232
 935,1.455267802\C,2.5029369493,-2.5149167441,0.7642932962\C,2.51624200
 77,-2.523245138,-0.6894910866\C,1.4094639566,-2.9985624699,-1.39544041
 93\O,-4.7058649674,-0.1602290561,-0.0421457159\\Version=EM64L-G09RevC.
 01\State=1-A\HF=-2361.3560996\RMSD=7.248e-09\RMSF=1.979e-04\Dipole=0.4
 993624,0.0169749,0.0044719\Quadrupole=-4.8703898,2.6271131,2.2432767,-
 0.2551535,-0.0636307,-0.0045716\PG=C01 [X(C60O1)]\\@


 CHARLIE BROWN..'I CAN'T GET THAT STUPID KITE IN THE   
 AIR... I CAN'T... I C A N N O T...'                          
 LUCY..'OH COME NOW CHARLIE BROWN...THAT'S NO WAY TO TALK...  
 THE TROUBLE WITH YOU IS YOU DON'T BELIEVE IN YOURSELF... YOU 
 DON'T BELIEVE IN YOUR OWN ABILITIES...  YOU'VE GOT TO SAY TO 
 YOURSELF...'I BELIEVE I CAN FLY THIS KITE.'... GO AHEAD SAY  
 IT....'
 CHARLIE BROWN..'I BELIEVE THAT I CAN FLY THIS STUPID  
 KITE.....I BELIEVE THAT I CAN FLY THIS KITE........          
 I  A C T U A L L Y  B E L I E V E  T H A T  I  C A N ******' 
 LUCY..'I'LL BET YOU TEN-TO-ONE YOU'RE WRONG.......'    SCHULZ
 Job cpu time:  0 days 19 hours 41 minutes 41.1 seconds.
 File lengths (MBytes):  RWF=    523 Int=      0 D2E=      0 Chk=     61 Scr=      1
 Normal termination of Gaussian 09 at Fri Jan 24 21:54:45 2014.
