 Entering Gaussian System, Link 0=g09
 Input=C60O_B3LYP_631GSTAR_opt_HF_6-31PLUSgSTAR_2014_02_10_ESP.gjf
 Output=C60O_B3LYP_631GSTAR_opt_HF_6-31PLUSgSTAR_2014_02_10_ESP.log
 Initial command:
 /apps/gaussian/g09_c01/g09/l1.exe /tmp/pbs.6484950.cx1b/Gau-18157.inp -scrdir=/tmp/pbs.6484950.cx1b/
 Entering Link 1 = /apps/gaussian/g09_c01/g09/l1.exe PID=     18165.
  
 Copyright (c) 1988,1990,1992,1993,1995,1998,2003,2009,2011,
            Gaussian, Inc.  All Rights Reserved.
  
 This is part of the Gaussian(R) 09 program.  It is based on
 the Gaussian(R) 03 system (copyright 2003, Gaussian, Inc.),
 the Gaussian(R) 98 system (copyright 1998, Gaussian, Inc.),
 the Gaussian(R) 94 system (copyright 1995, Gaussian, Inc.),
 the Gaussian 92(TM) system (copyright 1992, Gaussian, Inc.),
 the Gaussian 90(TM) system (copyright 1990, Gaussian, Inc.),
 the Gaussian 88(TM) system (copyright 1988, Gaussian, Inc.),
 the Gaussian 86(TM) system (copyright 1986, Carnegie Mellon
 University), and the Gaussian 82(TM) system (copyright 1983,
 Carnegie Mellon University). Gaussian is a federally registered
 trademark of Gaussian, Inc.
  
 This software contains proprietary and confidential information,
 including trade secrets, belonging to Gaussian, Inc.
  
 This software is provided under written license and may be
 used, copied, transmitted, or stored only in accord with that
 written license.
  
 The following legend is applicable only to US Government
 contracts under FAR:
  
                    RESTRICTED RIGHTS LEGEND
  
 Use, reproduction and disclosure by the US Government is
 subject to restrictions as set forth in subparagraphs (a)
 and (c) of the Commercial Computer Software - Restricted
 Rights clause in FAR 52.227-19.
  
 Gaussian, Inc.
 340 Quinnipiac St., Bldg. 40, Wallingford CT 06492
  
  
 ---------------------------------------------------------------
 Warning -- This program may not be used in any manner that
 competes with the business of Gaussian, Inc. or will provide
 assistance to any competitor of Gaussian, Inc.  The licensee
 of this program is prohibited from giving any competitor of
 Gaussian, Inc. access to this program.  By using this program,
 the user acknowledges that Gaussian, Inc. is engaged in the
 business of creating and licensing software in the field of
 computational chemistry and represents and warrants to the
 licensee that it is not a competitor of Gaussian, Inc. and that
 it will not use this program in any manner prohibited above.
 ---------------------------------------------------------------
  

 Cite this work as:
 Gaussian 09, Revision C.01,
 M. J. Frisch, G. W. Trucks, H. B. Schlegel, G. E. Scuseria, 
 M. A. Robb, J. R. Cheeseman, G. Scalmani, V. Barone, B. Mennucci, 
 G. A. Petersson, H. Nakatsuji, M. Caricato, X. Li, H. P. Hratchian, 
 A. F. Izmaylov, J. Bloino, G. Zheng, J. L. Sonnenberg, M. Hada, 
 M. Ehara, K. Toyota, R. Fukuda, J. Hasegawa, M. Ishida, T. Nakajima, 
 Y. Honda, O. Kitao, H. Nakai, T. Vreven, J. A. Montgomery, Jr., 
 J. E. Peralta, F. Ogliaro, M. Bearpark, J. J. Heyd, E. Brothers, 
 K. N. Kudin, V. N. Staroverov, T. Keith, R. Kobayashi, J. Normand, 
 K. Raghavachari, A. Rendell, J. C. Burant, S. S. Iyengar, J. Tomasi, 
 M. Cossi, N. Rega, J. M. Millam, M. Klene, J. E. Knox, J. B. Cross, 
 V. Bakken, C. Adamo, J. Jaramillo, R. Gomperts, R. E. Stratmann, 
 O. Yazyev, A. J. Austin, R. Cammi, C. Pomelli, J. W. Ochterski, 
 R. L. Martin, K. Morokuma, V. G. Zakrzewski, G. A. Voth, 
 P. Salvador, J. J. Dannenberg, S. Dapprich, A. D. Daniels, 
 O. Farkas, J. B. Foresman, J. V. Ortiz, J. Cioslowski, 
 and D. J. Fox, Gaussian, Inc., Wallingford CT, 2010.
 
 ******************************************
 Gaussian 09:  EM64L-G09RevC.01 23-Sep-2011
                11-Feb-2014 
 ******************************************
 %chk=C60O_B3LYP_631GSTAR_opt_HF_6-31PLUSgSTAR_2014_02_10_ESP.chk
 %mem=63000Mb
 %nprocshared=12
 Will use up to   12 processors via shared memory.
 -------------------------------------
 #p HF/6-31+g* sp nosymm pop=ESP polar
 -------------------------------------
 1/38=1/1;
 2/12=2,15=1,17=6,18=5,40=1/2;
 3/5=1,6=6,7=11,11=9,16=1,25=1,30=1/1,2,3;
 4//1;
 5/5=2,38=5,98=1/2;
 8/6=4,10=90,11=11/1;
 10/6=1,13=10,31=1/2;
 6/7=2,8=2,9=2,10=2,15=8,28=1/1,2;
 99/5=1,9=1/99;
 Leave Link    1 at Tue Feb 11 18:27:03 2014, MaxMem= 8257536000 cpu:       0.4
 (Enter /apps/gaussian/g09_c01/g09/l101.exe)
 ----------------------------------
 6-31+g* HF C60O_B3LYP_631GSTAR_opt
 ----------------------------------
 Charge =  0 Multiplicity = 1
 Symbolic Z-Matrix:
 C                     0.11794   3.48432  -0.69695 
 C                     0.11794   3.48419   0.69757 
 C                    -1.05618   3.03009   1.42366 
 C                    -2.18357   2.58698   0.72789 
 C                    -2.18357   2.58712  -0.72743 
 C                    -1.05618   3.03034  -1.42312 
 C                    -0.61525   2.30787  -2.59473 
 C                     0.83769   2.30791  -2.59913 
 C                     1.2915    3.03609  -1.42518 
 C                     2.42006   2.6028   -0.72671 
 C                     2.42006   2.60268   0.72717 
 C                     1.2915    3.03583   1.42571 
 C                     0.8377    2.30745   2.59953 
 C                    -0.61524   2.30741   2.59513 
 C                    -1.32105   1.17617   3.01732 
 C                    -2.50172   0.73721   2.29859 
 C                    -2.94192   1.45255   1.19478 
 C                    -3.51714   0.77134   0.00006 
 C                    -2.94191   1.45276  -1.19452 
 C                    -2.50172   0.73762  -2.29846 
 C                    -1.32105   1.1767   -3.01711 
 C                    -0.59396   0.00031  -3.46241 
 C                     0.80126   0.00029  -3.47103 
 C                     1.53234   1.17637  -3.02746 
 C                     2.70775   0.72743  -2.30374 
 C                     3.14269   1.42534  -1.17542 
 C                     3.59101   0.69771   0.00006 
 C                     3.1427    1.42513   1.17566 
 C                     2.70776   0.72703   2.30386 
 C                     1.53235   1.17583   3.02766 
 C                     0.80127  -0.00032   3.47102 
 C                    -0.59395  -0.0003    3.46241 
 C                    -1.32107  -1.17667   3.01711 
 C                    -2.50175  -0.73756   2.29847 
 C                    -2.94195  -1.45268   1.19453 
 C                    -3.51717  -0.77125  -0.00005 
 C                    -2.94196  -1.45247  -1.19477 
 C                    -2.50176  -0.73715  -2.29859 
 C                    -1.32108  -1.17614  -3.0173 
 C                    -0.61531  -2.3074   -2.59513 
 C                     0.83762  -2.30747  -2.59953 
 C                     1.5323   -1.17587  -3.02765 
 C                     2.70774  -0.7271   -2.30387 
 C                     3.14265  -1.42521  -1.17567 
 C                     3.59098  -0.69779  -0.00007 
 C                     3.14265  -1.42541   1.17541 
 C                     2.70775  -0.7275    2.30374 
 C                     1.53231  -1.17641   3.02744 
 C                     0.83763  -2.30793   2.59912 
 C                    -0.6153   -2.30786   2.59472 
 C                    -1.05626  -3.03032   1.42313 
 C                    -2.18364  -2.58705   0.72744 
 C                    -2.18364  -2.58693  -0.72789 
 C                    -1.05627  -3.03007  -1.42366 
 C                     0.11784  -3.4842   -0.69757 
 C                     0.11785  -3.48432   0.69696 
 C                     1.29141  -3.03613   1.42517 
 C                     2.41998  -2.60286   0.7267 
 C                     2.41998  -2.60273  -0.72717 
 C                     1.29141  -3.03587  -1.42571 
 O                    -4.71153   0.00006   0.00001 
 
 NAtoms=     61 NQM=        0 NQMF=       0 NMMI=     61 NMMIF=      0
                NMic=       0 NMicF=      0.
                    Isotopes and Nuclear Properties:
 (Nuclear quadrupole moments (NQMom) in fm**2, nuclear magnetic moments (NMagM)
  in nuclear magnetons)

  Atom         1           2           3           4           5           6           7           8           9          10
 IAtWgt=          12          12          12          12          12          12          12          12          12          12
 AtmWgt=  12.0000000  12.0000000  12.0000000  12.0000000  12.0000000  12.0000000  12.0000000  12.0000000  12.0000000  12.0000000
 NucSpn=           0           0           0           0           0           0           0           0           0           0
 AtZEff=   0.0000000   0.0000000   0.0000000   0.0000000   0.0000000   0.0000000   0.0000000   0.0000000   0.0000000   0.0000000
 NQMom=    0.0000000   0.0000000   0.0000000   0.0000000   0.0000000   0.0000000   0.0000000   0.0000000   0.0000000   0.0000000
 NMagM=    0.0000000   0.0000000   0.0000000   0.0000000   0.0000000   0.0000000   0.0000000   0.0000000   0.0000000   0.0000000

  Atom        11          12          13          14          15          16          17          18          19          20
 IAtWgt=          12          12          12          12          12          12          12          12          12          12
 AtmWgt=  12.0000000  12.0000000  12.0000000  12.0000000  12.0000000  12.0000000  12.0000000  12.0000000  12.0000000  12.0000000
 NucSpn=           0           0           0           0           0           0           0           0           0           0
 AtZEff=   0.0000000   0.0000000   0.0000000   0.0000000   0.0000000   0.0000000   0.0000000   0.0000000   0.0000000   0.0000000
 NQMom=    0.0000000   0.0000000   0.0000000   0.0000000   0.0000000   0.0000000   0.0000000   0.0000000   0.0000000   0.0000000
 NMagM=    0.0000000   0.0000000   0.0000000   0.0000000   0.0000000   0.0000000   0.0000000   0.0000000   0.0000000   0.0000000

  Atom        21          22          23          24          25          26          27          28          29          30
 IAtWgt=          12          12          12          12          12          12          12          12          12          12
 AtmWgt=  12.0000000  12.0000000  12.0000000  12.0000000  12.0000000  12.0000000  12.0000000  12.0000000  12.0000000  12.0000000
 NucSpn=           0           0           0           0           0           0           0           0           0           0
 AtZEff=   0.0000000   0.0000000   0.0000000   0.0000000   0.0000000   0.0000000   0.0000000   0.0000000   0.0000000   0.0000000
 NQMom=    0.0000000   0.0000000   0.0000000   0.0000000   0.0000000   0.0000000   0.0000000   0.0000000   0.0000000   0.0000000
 NMagM=    0.0000000   0.0000000   0.0000000   0.0000000   0.0000000   0.0000000   0.0000000   0.0000000   0.0000000   0.0000000

  Atom        31          32          33          34          35          36          37          38          39          40
 IAtWgt=          12          12          12          12          12          12          12          12          12          12
 AtmWgt=  12.0000000  12.0000000  12.0000000  12.0000000  12.0000000  12.0000000  12.0000000  12.0000000  12.0000000  12.0000000
 NucSpn=           0           0           0           0           0           0           0           0           0           0
 AtZEff=   0.0000000   0.0000000   0.0000000   0.0000000   0.0000000   0.0000000   0.0000000   0.0000000   0.0000000   0.0000000
 NQMom=    0.0000000   0.0000000   0.0000000   0.0000000   0.0000000   0.0000000   0.0000000   0.0000000   0.0000000   0.0000000
 NMagM=    0.0000000   0.0000000   0.0000000   0.0000000   0.0000000   0.0000000   0.0000000   0.0000000   0.0000000   0.0000000

  Atom        41          42          43          44          45          46          47          48          49          50
 IAtWgt=          12          12          12          12          12          12          12          12          12          12
 AtmWgt=  12.0000000  12.0000000  12.0000000  12.0000000  12.0000000  12.0000000  12.0000000  12.0000000  12.0000000  12.0000000
 NucSpn=           0           0           0           0           0           0           0           0           0           0
 AtZEff=   0.0000000   0.0000000   0.0000000   0.0000000   0.0000000   0.0000000   0.0000000   0.0000000   0.0000000   0.0000000
 NQMom=    0.0000000   0.0000000   0.0000000   0.0000000   0.0000000   0.0000000   0.0000000   0.0000000   0.0000000   0.0000000
 NMagM=    0.0000000   0.0000000   0.0000000   0.0000000   0.0000000   0.0000000   0.0000000   0.0000000   0.0000000   0.0000000

  Atom        51          52          53          54          55          56          57          58          59          60
 IAtWgt=          12          12          12          12          12          12          12          12          12          12
 AtmWgt=  12.0000000  12.0000000  12.0000000  12.0000000  12.0000000  12.0000000  12.0000000  12.0000000  12.0000000  12.0000000
 NucSpn=           0           0           0           0           0           0           0           0           0           0
 AtZEff=   0.0000000   0.0000000   0.0000000   0.0000000   0.0000000   0.0000000   0.0000000   0.0000000   0.0000000   0.0000000
 NQMom=    0.0000000   0.0000000   0.0000000   0.0000000   0.0000000   0.0000000   0.0000000   0.0000000   0.0000000   0.0000000
 NMagM=    0.0000000   0.0000000   0.0000000   0.0000000   0.0000000   0.0000000   0.0000000   0.0000000   0.0000000   0.0000000

  Atom        61
 IAtWgt=          16
 AtmWgt=  15.9949146
 NucSpn=           0
 AtZEff=   0.0000000
 NQMom=    0.0000000
 NMagM=    0.0000000
 Leave Link  101 at Tue Feb 11 18:27:03 2014, MaxMem= 8257536000 cpu:       0.9
 (Enter /apps/gaussian/g09_c01/g09/l202.exe)
 Symmetry turned off by external request.
 Stoichiometry    C60O
 Framework group  C1[X(C60O)]
 Deg. of freedom   177
 Full point group                 C1      NOp   1
                          Input orientation:                          
 ---------------------------------------------------------------------
 Center     Atomic      Atomic             Coordinates (Angstroms)
 Number     Number       Type             X           Y           Z
 ---------------------------------------------------------------------
      1          6           0        0.117939    3.484316   -0.696953
      2          6           0        0.117942    3.484190    0.697566
      3          6           0       -1.056179    3.030090    1.423661
      4          6           0       -2.183570    2.586984    0.727894
      5          6           0       -2.183572    2.587116   -0.727431
      6          6           0       -1.056182    3.030340   -1.423124
      7          6           0       -0.615245    2.307870   -2.594725
      8          6           0        0.837690    2.307910   -2.599128
      9          6           0        1.291496    3.036087   -1.425180
     10          6           0        2.420058    2.602799   -0.726710
     11          6           0        2.420063    2.602675    0.727165
     12          6           0        1.291498    3.035833    1.425711
     13          6           0        0.837697    2.307449    2.599533
     14          6           0       -0.615240    2.307412    2.595133
     15          6           0       -1.321045    1.176170    3.017317
     16          6           0       -2.501716    0.737214    2.298586
     17          6           0       -2.941917    1.452547    1.194781
     18          6           0       -3.517143    0.771340    0.000060
     19          6           0       -2.941914    1.452763   -1.194522
     20          6           0       -2.501722    0.737623   -2.298456
     21          6           0       -1.321051    1.176704   -3.017113
     22          6           0       -0.593961    0.000311   -3.462409
     23          6           0        0.801260    0.000293   -3.471025
     24          6           0        1.532339    1.176368   -3.027458
     25          6           0        2.707751    0.727433   -2.303741
     26          6           0        3.142694    1.425341   -1.175417
     27          6           0        3.591010    0.697709    0.000058
     28          6           0        3.142696    1.425134    1.175661
     29          6           0        2.707758    0.727025    2.303863
     30          6           0        1.532349    1.175833    3.027660
     31          6           0        0.801269   -0.000318    3.471024
     32          6           0       -0.593951   -0.000299    3.462409
     33          6           0       -1.321074   -1.176671    3.017107
     34          6           0       -2.501750   -0.737559    2.298466
     35          6           0       -2.941948   -1.452683    1.194526
     36          6           0       -3.517175   -0.771245   -0.000053
     37          6           0       -2.941957   -1.452466   -1.194773
     38          6           0       -2.501756   -0.737149   -2.298585
     39          6           0       -1.321083   -1.176137   -3.017305
     40          6           0       -0.615310   -2.307399   -2.595129
     41          6           0        0.837623   -2.307473   -2.599531
     42          6           0        1.532301   -1.175874   -3.027649
     43          6           0        2.707744   -0.727095   -2.303871
     44          6           0        3.142650   -1.425207   -1.175667
     45          6           0        3.590982   -0.697792   -0.000065
     46          6           0        3.142652   -1.425413    1.175408
     47          6           0        2.707748   -0.727502    2.303737
     48          6           0        1.532307   -1.176409    3.027440
     49          6           0        0.837630   -2.307932    2.599123
     50          6           0       -0.615303   -2.307858    2.594723
     51          6           0       -1.056263   -3.030320    1.423126
     52          6           0       -2.183635   -2.587054    0.727436
     53          6           0       -2.183639   -2.586925   -0.727890
     54          6           0       -1.056268   -3.030069   -1.423657
     55          6           0        0.117842   -3.484198   -0.697571
     56          6           0        0.117845   -3.484323    0.696958
     57          6           0        1.291411   -3.036126    1.425168
     58          6           0        2.419980   -2.602858    0.726702
     59          6           0        2.419979   -2.602730   -0.727167
     60          6           0        1.291405   -3.035874   -1.425706
     61          8           0       -4.711532    0.000057    0.000006
 ---------------------------------------------------------------------
 Rotational constants (GHZ):      0.0835885      0.0785582      0.0783247
 Leave Link  202 at Tue Feb 11 18:27:03 2014, MaxMem= 8257536000 cpu:       0.1
 (Enter /apps/gaussian/g09_c01/g09/l301.exe)
 Standard basis: 6-31+G(d) (6D, 7F)
 Ernie: Thresh=  0.10000D-02 Tol=  0.10000D-05 Strict=F.
 Integral buffers will be    131072 words long.
 Raffenetti 1 integral format.
 Two-electron integral symmetry is turned off.
  1159 basis functions,  1952 primitive gaussians,  1159 cartesian basis functions
   184 alpha electrons      184 beta electrons
       nuclear repulsion energy      8632.2924296636 Hartrees.
 IExCor=    0 DFT=F Ex=HF Corr=None ExCW=0 ScaHFX=  1.000000
 ScaDFX=  1.000000  1.000000  1.000000  1.000000 ScalE2=  1.000000  1.000000
 IRadAn=      0 IRanWt=     -1 IRanGd=            0 ICorTp=0
 NAtoms=   61 NActive=   61 NUniq=   61 SFac= 1.00D+00 NAtFMM=   60 NAOKFM=T Big=T
 Leave Link  301 at Tue Feb 11 18:27:03 2014, MaxMem= 8257536000 cpu:       0.7
 (Enter /apps/gaussian/g09_c01/g09/l302.exe)
 NPDir=0 NMtPBC=     1 NCelOv=     1 NCel=       1 NClECP=     1 NCelD=      1
         NCelK=      1 NCelE2=     1 NClLst=     1 CellRange=     0.0.
 One-electron integrals computed using PRISM.
 NBasis=  1159 RedAO= T  NBF=  1159
 NBsUse=  1101 1.00D-06 NBFU=  1101
 Leave Link  302 at Tue Feb 11 18:27:09 2014, MaxMem= 8257536000 cpu:      64.8
 (Enter /apps/gaussian/g09_c01/g09/l303.exe)
 DipDrv:  MaxL=1.
 Leave Link  303 at Tue Feb 11 18:27:09 2014, MaxMem= 8257536000 cpu:       3.3
 (Enter /apps/gaussian/g09_c01/g09/l401.exe)
 Harris functional with IExCor=  205 diagonalized for initial guess.
 ExpMin= 4.38D-02 ExpMax= 5.48D+03 ExpMxC= 8.25D+02 IAcc=2 IRadAn=         4 AccDes= 0.00D+00
 HarFok:  IExCor=  205 AccDes= 0.00D+00 IRadAn=         4 IDoV= 1
 ScaDFX=  1.000000  1.000000  1.000000  1.000000
 FoFCou: FMM=F IPFlag=           0 FMFlag=      100000 FMFlg1=        2001
         NFxFlg=           0 DoJE=T BraDBF=F KetDBF=T FulRan=T
         Omega=  0.000000  0.000000  1.000000  0.000000  0.000000 ICntrl=     500 IOpCl=  0
         NMat0=    1 NMatS0=    1 NMatT0=    0 NMatD0=    1 NMtDS0=    0 NMtDT0=    0
         I1Cent=           4 NGrid=           0.
 Symmetry not used in FoFCou.
 Harris En= -2348.61079973545    
 Leave Link  401 at Tue Feb 11 18:27:17 2014, MaxMem= 8257536000 cpu:      93.3
 (Enter /apps/gaussian/g09_c01/g09/l502.exe)
 Closed shell SCF:
 Requested convergence on RMS density matrix=1.00D-08 within 128 cycles.
 Requested convergence on MAX density matrix=1.00D-06.
 Requested convergence on             energy=1.00D-06.
 No special actions if energy rises.
 Using DIIS extrapolation, IDIIS=  1040.
 Two-electron integral symmetry not used.
 IEnd=     4068973 IEndB=     4068973 NGot=  8257536000 MDV=  8254828108
 LenX=  8254828108 LenY=  8253483668
 Fock matrices will be formed incrementally for  20 cycles.

 Cycle   1  Pass 0  IDiag  1:
 FoFCou: FMM=T IPFlag=           0 FMFlag=      100000 FMFlg1=        2001
         NFxFlg=           0 DoJE=F BraDBF=F KetDBF=F FulRan=T
         Omega=  0.000000  0.000000  1.000000  0.000000  0.000000 ICntrl=       0 IOpCl=  0
         NMat0=    1 NMatS0=    1 NMatT0=    0 NMatD0=    1 NMtDS0=    0 NMtDT0=    0
         I1Cent=           0 NGrid=           0.
 Symmetry not used in FoFCou.
 FMM levels:  10  Number of levels for PrismC:   9
 E= -2345.34332411205    
 DIIS: error= 7.17D-02 at cycle   1 NSaved=   1.
 NSaved= 1 IEnMin= 1 EnMin= -2345.34332411205     IErMin= 1 ErrMin= 7.17D-02
 ErrMax= 7.17D-02 EMaxC= 1.00D-01 BMatC= 2.90D+00 BMatP= 2.90D+00
 IDIUse=3 WtCom= 2.83D-01 WtEn= 7.17D-01
 Coeff-Com:  0.100D+01
 Coeff-En:   0.100D+01
 Coeff:      0.100D+01
 Gap=     0.248 Goal=   None    Shift=    0.000
 GapD=    0.248 DampG=1.000 DampE=0.500 DampFc=0.5000 IDamp=-1.
 Damping current iteration by 5.00D-01
 RMSDP=1.72D-02 MaxDP=1.45D+00              OVMax= 1.32D-01

 Cycle   2  Pass 0  IDiag  1:
 RMSU=  6.05D-03    CP:  9.60D-01
 E= -2345.99058875225     Delta-E=       -0.647264640194 Rises=F Damp=T
 DIIS: error= 4.01D-02 at cycle   2 NSaved=   2.
 NSaved= 2 IEnMin= 2 EnMin= -2345.99058875225     IErMin= 2 ErrMin= 4.01D-02
 ErrMax= 4.01D-02 EMaxC= 1.00D-01 BMatC= 7.76D-01 BMatP= 2.90D+00
 IDIUse=3 WtCom= 5.99D-01 WtEn= 4.01D-01
 Coeff-Com: -0.822D+00 0.182D+01
 Coeff-En:   0.000D+00 0.100D+01
 Coeff:     -0.492D+00 0.149D+01
 Gap=     0.256 Goal=   None    Shift=    0.000
 RMSDP=1.13D-02 MaxDP=1.11D+00 DE=-6.47D-01 OVMax= 5.84D-02

 Cycle   3  Pass 0  IDiag  1:
 RMSU=  4.41D-03    CP:  9.36D-01  2.10D+00
 E= -2346.62776823171     Delta-E=       -0.637179479469 Rises=F Damp=F
 DIIS: error= 8.93D-03 at cycle   3 NSaved=   3.
 NSaved= 3 IEnMin= 3 EnMin= -2346.62776823171     IErMin= 3 ErrMin= 8.93D-03
 ErrMax= 8.93D-03 EMaxC= 1.00D-01 BMatC= 5.77D-02 BMatP= 7.76D-01
 IDIUse=3 WtCom= 9.11D-01 WtEn= 8.93D-02
 Coeff-Com: -0.339D+00 0.607D+00 0.732D+00
 Coeff-En:   0.000D+00 0.000D+00 0.100D+01
 Coeff:     -0.308D+00 0.553D+00 0.756D+00
 Gap=     0.248 Goal=   None    Shift=    0.000
 RMSDP=2.72D-03 MaxDP=1.27D-01 DE=-6.37D-01 OVMax= 2.16D-02

 Cycle   4  Pass 0  IDiag  1:
 RMSU=  6.23D-04    CP:  9.49D-01  2.16D+00  5.98D-01
 E= -2346.67494653401     Delta-E=       -0.047178302295 Rises=F Damp=F
 DIIS: error= 8.89D-04 at cycle   4 NSaved=   4.
 NSaved= 4 IEnMin= 4 EnMin= -2346.67494653401     IErMin= 4 ErrMin= 8.89D-04
 ErrMax= 8.89D-04 EMaxC= 1.00D-01 BMatC= 9.68D-04 BMatP= 5.77D-02
 IDIUse=3 WtCom= 9.91D-01 WtEn= 8.89D-03
 Coeff-Com: -0.600D-02 0.297D-02 0.968D-01 0.906D+00
 Coeff-En:   0.000D+00 0.000D+00 0.000D+00 0.100D+01
 Coeff:     -0.594D-02 0.295D-02 0.960D-01 0.907D+00
 Gap=     0.248 Goal=   None    Shift=    0.000
 RMSDP=5.86D-04 MaxDP=8.32D-02 DE=-4.72D-02 OVMax= 7.28D-03

 Cycle   5  Pass 0  IDiag  1:
 RMSU=  2.11D-04    CP:  9.59D-01  2.20D+00  6.34D-01  9.83D-01
 E= -2346.67615890381     Delta-E=       -0.001212369800 Rises=F Damp=F
 DIIS: error= 5.24D-04 at cycle   5 NSaved=   5.
 NSaved= 5 IEnMin= 5 EnMin= -2346.67615890381     IErMin= 5 ErrMin= 5.24D-04
 ErrMax= 5.24D-04 EMaxC= 1.00D-01 BMatC= 1.25D-04 BMatP= 9.68D-04
 IDIUse=3 WtCom= 9.95D-01 WtEn= 5.24D-03
 Coeff-Com:  0.194D-01-0.367D-01-0.225D-01 0.213D+00 0.827D+00
 Coeff-En:   0.000D+00 0.000D+00 0.000D+00 0.000D+00 0.100D+01
 Coeff:      0.193D-01-0.365D-01-0.224D-01 0.212D+00 0.828D+00
 Gap=     0.249 Goal=   None    Shift=    0.000
 RMSDP=1.16D-04 MaxDP=4.64D-03 DE=-1.21D-03 OVMax= 3.51D-03

 Cycle   6  Pass 0  IDiag  1:
 RMSU=  6.86D-05    CP:  9.58D-01  2.20D+00  6.30D-01  1.04D+00  9.59D-01
 E= -2346.67638156402     Delta-E=       -0.000222660216 Rises=F Damp=F
 DIIS: error= 2.00D-04 at cycle   6 NSaved=   6.
 NSaved= 6 IEnMin= 6 EnMin= -2346.67638156402     IErMin= 6 ErrMin= 2.00D-04
 ErrMax= 2.00D-04 EMaxC= 1.00D-01 BMatC= 2.50D-05 BMatP= 1.25D-04
 IDIUse=3 WtCom= 9.98D-01 WtEn= 2.00D-03
 Coeff-Com:  0.604D-02-0.102D-01-0.216D-01-0.118D+00 0.197D+00 0.946D+00
 Coeff-En:   0.000D+00 0.000D+00 0.000D+00 0.000D+00 0.000D+00 0.100D+01
 Coeff:      0.602D-02-0.102D-01-0.215D-01-0.118D+00 0.197D+00 0.946D+00
 Gap=     0.250 Goal=   None    Shift=    0.000
 DSYEVD returned Info=        1652 IAlg= 4 N=  1101 NDim=  1101 NE2=     7496351 trying DSYEV.
 RMSDP=8.07D-05 MaxDP=9.29D-03 DE=-2.23D-04 OVMax= 2.52D-03

 Cycle   7  Pass 0  IDiag  1:
 RMSU=  3.16D-05    CP:  9.58D-01  2.20D+00  6.28D-01  1.05D+00  1.14D+00
                    CP:  1.03D+00
 E= -2346.67644550703     Delta-E=       -0.000063943002 Rises=F Damp=F
 DIIS: error= 1.11D-04 at cycle   7 NSaved=   7.
 NSaved= 7 IEnMin= 7 EnMin= -2346.67644550703     IErMin= 7 ErrMin= 1.11D-04
 ErrMax= 1.11D-04 EMaxC= 1.00D-01 BMatC= 4.84D-06 BMatP= 2.50D-05
 IDIUse=3 WtCom= 9.99D-01 WtEn= 1.11D-03
 Coeff-Com:  0.117D-03 0.226D-03-0.519D-02-0.694D-01-0.171D-01 0.356D+00
 Coeff-Com:  0.735D+00
 Coeff-En:   0.000D+00 0.000D+00 0.000D+00 0.000D+00 0.000D+00 0.000D+00
 Coeff-En:   0.100D+01
 Coeff:      0.117D-03 0.226D-03-0.518D-02-0.694D-01-0.171D-01 0.356D+00
 Coeff:      0.736D+00
 Gap=     0.250 Goal=   None    Shift=    0.000
 RMSDP=3.29D-05 MaxDP=4.24D-03 DE=-6.39D-05 OVMax= 8.78D-04

 Cycle   8  Pass 0  IDiag  1:
 RMSU=  8.53D-06    CP:  9.58D-01  2.20D+00  6.29D-01  1.04D+00  1.19D+00
                    CP:  1.22D+00  8.58D-01
 E= -2346.67645610901     Delta-E=       -0.000010601987 Rises=F Damp=F
 DIIS: error= 3.00D-05 at cycle   8 NSaved=   8.
 NSaved= 8 IEnMin= 8 EnMin= -2346.67645610901     IErMin= 8 ErrMin= 3.00D-05
 ErrMax= 3.00D-05 EMaxC= 1.00D-01 BMatC= 7.39D-07 BMatP= 4.84D-06
 IDIUse=1 WtCom= 1.00D+00 WtEn= 0.00D+00
 Coeff-Com: -0.166D-02 0.286D-02 0.584D-02 0.289D-01-0.565D-01-0.243D+00
 Coeff-Com:  0.884D-01 0.118D+01
 Coeff:     -0.166D-02 0.286D-02 0.584D-02 0.289D-01-0.565D-01-0.243D+00
 Coeff:      0.884D-01 0.118D+01
 Gap=     0.250 Goal=   None    Shift=    0.000
 RMSDP=1.62D-05 MaxDP=6.91D-04 DE=-1.06D-05 OVMax= 5.79D-04

 Cycle   9  Pass 0  IDiag  1:
 RMSU=  4.21D-06    CP:  9.58D-01  2.20D+00  6.29D-01  1.04D+00  1.21D+00
                    CP:  1.27D+00  1.09D+00  1.20D+00
 E= -2346.67645875925     Delta-E=       -0.000002650235 Rises=F Damp=F
 DIIS: error= 5.68D-06 at cycle   9 NSaved=   9.
 NSaved= 9 IEnMin= 9 EnMin= -2346.67645875925     IErMin= 9 ErrMin= 5.68D-06
 ErrMax= 5.68D-06 EMaxC= 1.00D-01 BMatC= 4.94D-08 BMatP= 7.39D-07
 IDIUse=1 WtCom= 1.00D+00 WtEn= 0.00D+00
 Coeff-Com: -0.497D-03 0.829D-03 0.196D-02 0.129D-01-0.134D-01-0.962D-01
 Coeff-Com: -0.282D-01 0.299D+00 0.824D+00
 Coeff:     -0.497D-03 0.829D-03 0.196D-02 0.129D-01-0.134D-01-0.962D-01
 Coeff:     -0.282D-01 0.299D+00 0.824D+00
 Gap=     0.250 Goal=   None    Shift=    0.000
 RMSDP=2.88D-06 MaxDP=2.97D-04 DE=-2.65D-06 OVMax= 1.32D-04

 Initial convergence to 1.0D-05 achieved.  Increase integral accuracy.
 Cycle  10  Pass 1  IDiag  1:
 E= -2346.67645889716     Delta-E=       -0.000000137912 Rises=F Damp=F
 DIIS: error= 4.76D-06 at cycle   1 NSaved=   1.
 NSaved= 1 IEnMin= 1 EnMin= -2346.67645889716     IErMin= 1 ErrMin= 4.76D-06
 ErrMax= 4.76D-06 EMaxC= 1.00D-01 BMatC= 7.00D-09 BMatP= 7.00D-09
 IDIUse=1 WtCom= 1.00D+00 WtEn= 0.00D+00
 Coeff-Com:  0.100D+01
 Coeff:      0.100D+01
 Gap=     0.250 Goal=   None    Shift=    0.000
 RMSDP=2.88D-06 MaxDP=2.97D-04 DE=-1.38D-07 OVMax= 5.20D-05

 Cycle  11  Pass 1  IDiag  1:
 RMSU=  2.10D-06    CP:  1.00D+00
 E= -2346.67645892324     Delta-E=       -0.000000026081 Rises=F Damp=F
 DIIS: error= 2.92D-06 at cycle   2 NSaved=   2.
 NSaved= 2 IEnMin= 2 EnMin= -2346.67645892324     IErMin= 2 ErrMin= 2.92D-06
 ErrMax= 2.92D-06 EMaxC= 1.00D-01 BMatC= 3.12D-09 BMatP= 7.00D-09
 IDIUse=1 WtCom= 1.00D+00 WtEn= 0.00D+00
 Coeff-Com:  0.163D+00 0.837D+00
 Coeff:      0.163D+00 0.837D+00
 Gap=     0.250 Goal=   None    Shift=    0.000
 RMSDP=4.67D-07 MaxDP=2.79D-05 DE=-2.61D-08 OVMax= 3.42D-05

 Cycle  12  Pass 1  IDiag  1:
 RMSU=  2.86D-07    CP:  1.00D+00  1.05D+00
 E= -2346.67645893360     Delta-E=       -0.000000010357 Rises=F Damp=F
 DIIS: error= 2.49D-06 at cycle   3 NSaved=   3.
 NSaved= 3 IEnMin= 3 EnMin= -2346.67645893360     IErMin= 3 ErrMin= 2.49D-06
 ErrMax= 2.49D-06 EMaxC= 1.00D-01 BMatC= 1.72D-09 BMatP= 3.12D-09
 IDIUse=1 WtCom= 1.00D+00 WtEn= 0.00D+00
 Coeff-Com: -0.664D+00 0.149D+00 0.152D+01
 Coeff:     -0.664D+00 0.149D+00 0.152D+01
 Gap=     0.250 Goal=   None    Shift=    0.000
 RMSDP=8.30D-07 MaxDP=2.99D-05 DE=-1.04D-08 OVMax= 5.21D-05

 Cycle  13  Pass 1  IDiag  1:
 RMSU=  4.67D-07    CP:  1.00D+00  1.17D+00  1.89D+00
 E= -2346.67645894504     Delta-E=       -0.000000011441 Rises=F Damp=F
 DIIS: error= 7.11D-07 at cycle   4 NSaved=   4.
 NSaved= 4 IEnMin= 4 EnMin= -2346.67645894504     IErMin= 4 ErrMin= 7.11D-07
 ErrMax= 7.11D-07 EMaxC= 1.00D-01 BMatC= 3.24D-10 BMatP= 1.72D-09
 IDIUse=1 WtCom= 1.00D+00 WtEn= 0.00D+00
 Coeff-Com: -0.311D+00-0.915D-01 0.629D+00 0.774D+00
 Coeff:     -0.311D+00-0.915D-01 0.629D+00 0.774D+00
 Gap=     0.250 Goal=   None    Shift=    0.000
 RMSDP=2.23D-07 MaxDP=6.72D-06 DE=-1.14D-08 OVMax= 1.57D-05

 Cycle  14  Pass 1  IDiag  1:
 RMSU=  8.75D-08    CP:  1.00D+00  1.16D+00  2.24D+00  1.16D+00
 E= -2346.67645894640     Delta-E=       -0.000000001362 Rises=F Damp=F
 DIIS: error= 3.63D-07 at cycle   5 NSaved=   5.
 NSaved= 5 IEnMin= 5 EnMin= -2346.67645894640     IErMin= 5 ErrMin= 3.63D-07
 ErrMax= 3.63D-07 EMaxC= 1.00D-01 BMatC= 4.29D-11 BMatP= 3.24D-10
 IDIUse=1 WtCom= 1.00D+00 WtEn= 0.00D+00
 Coeff-Com:  0.179D+00-0.291D-01-0.398D+00-0.104D+00 0.135D+01
 Coeff:      0.179D+00-0.291D-01-0.398D+00-0.104D+00 0.135D+01
 Gap=     0.250 Goal=   None    Shift=    0.000
 RMSDP=1.83D-07 MaxDP=9.55D-06 DE=-1.36D-09 OVMax= 1.03D-05

 Cycle  15  Pass 1  IDiag  1:
 RMSU=  5.75D-08    CP:  1.00D+00  1.12D+00  2.34D+00  1.25D+00  1.27D+00
 E= -2346.67645894676     Delta-E=       -0.000000000358 Rises=F Damp=F
 DIIS: error= 1.02D-07 at cycle   6 NSaved=   6.
 NSaved= 6 IEnMin= 6 EnMin= -2346.67645894676     IErMin= 6 ErrMin= 1.02D-07
 ErrMax= 1.02D-07 EMaxC= 1.00D-01 BMatC= 1.31D-11 BMatP= 4.29D-11
 IDIUse=1 WtCom= 1.00D+00 WtEn= 0.00D+00
 Coeff-Com:  0.128D+00 0.511D-02-0.267D+00-0.200D+00 0.555D+00 0.778D+00
 Coeff:      0.128D+00 0.511D-02-0.267D+00-0.200D+00 0.555D+00 0.778D+00
 Gap=     0.250 Goal=   None    Shift=    0.000
 RMSDP=4.77D-08 MaxDP=4.78D-06 DE=-3.58D-10 OVMax= 2.30D-06

 Cycle  16  Pass 1  IDiag  1:
 RMSU=  2.26D-08    CP:  1.00D+00  1.12D+00  2.33D+00  1.24D+00  1.44D+00
                    CP:  1.23D+00
 E= -2346.67645894597     Delta-E=        0.000000000791 Rises=F Damp=F
 DIIS: error= 5.87D-08 at cycle   7 NSaved=   7.
 NSaved= 7 IEnMin= 6 EnMin= -2346.67645894676     IErMin= 7 ErrMin= 5.87D-08
 ErrMax= 5.87D-08 EMaxC= 1.00D-01 BMatC= 1.11D-12 BMatP= 1.31D-11
 IDIUse=1 WtCom= 1.00D+00 WtEn= 0.00D+00
 Coeff-Com: -0.291D-01 0.339D-02 0.669D-01 0.619D-02-0.185D+00-0.710D-01
 Coeff-Com:  0.121D+01
 Coeff:     -0.291D-01 0.339D-02 0.669D-01 0.619D-02-0.185D+00-0.710D-01
 Coeff:      0.121D+01
 Gap=     0.250 Goal=   None    Shift=    0.000
 RMSDP=4.60D-08 MaxDP=1.89D-06 DE= 7.91D-10 OVMax= 1.50D-06

 Cycle  17  Pass 1  IDiag  1:
 RMSU=  1.23D-08    CP:  1.00D+00  1.13D+00  2.32D+00  1.22D+00  1.47D+00
                    CP:  1.38D+00  1.28D+00
 E= -2346.67645894590     Delta-E=        0.000000000067 Rises=F Damp=F
 DIIS: error= 2.08D-08 at cycle   8 NSaved=   8.
 NSaved= 8 IEnMin= 6 EnMin= -2346.67645894676     IErMin= 8 ErrMin= 2.08D-08
 ErrMax= 2.08D-08 EMaxC= 1.00D-01 BMatC= 3.72D-13 BMatP= 1.11D-12
 IDIUse=1 WtCom= 1.00D+00 WtEn= 0.00D+00
 Coeff-Com: -0.294D-01 0.113D-03 0.642D-01 0.310D-01-0.141D+00-0.169D+00
 Coeff-Com:  0.404D+00 0.841D+00
 Coeff:     -0.294D-01 0.113D-03 0.642D-01 0.310D-01-0.141D+00-0.169D+00
 Coeff:      0.404D+00 0.841D+00
 Gap=     0.250 Goal=   None    Shift=    0.000
 RMSDP=2.00D-08 MaxDP=7.63D-07 DE= 6.73D-11 OVMax= 5.98D-07

 Cycle  18  Pass 1  IDiag  1:
 RMSU=  1.17D-08    CP:  1.00D+00  1.13D+00  2.32D+00  1.21D+00  1.48D+00
                    CP:  1.40D+00  1.43D+00  1.30D+00
 E= -2346.67645894691     Delta-E=       -0.000000001010 Rises=F Damp=F
 DIIS: error= 1.51D-08 at cycle   9 NSaved=   9.
 NSaved= 9 IEnMin= 9 EnMin= -2346.67645894691     IErMin= 9 ErrMin= 1.51D-08
 ErrMax= 1.51D-08 EMaxC= 1.00D-01 BMatC= 9.09D-14 BMatP= 3.72D-13
 IDIUse=1 WtCom= 1.00D+00 WtEn= 0.00D+00
 Coeff-Com: -0.608D-04-0.106D-02-0.487D-03 0.443D-02 0.127D-01-0.325D-01
 Coeff-Com: -0.145D+00 0.237D+00 0.925D+00
 Coeff:     -0.608D-04-0.106D-02-0.487D-03 0.443D-02 0.127D-01-0.325D-01
 Coeff:     -0.145D+00 0.237D+00 0.925D+00
 Gap=     0.250 Goal=   None    Shift=    0.000
 RMSDP=2.64D-08 MaxDP=1.37D-06 DE=-1.01D-09 OVMax= 3.06D-07

 Cycle  19  Pass 1  IDiag  1:
 RMSU=  1.51D-08    CP:  1.00D+00  1.13D+00  2.32D+00  1.21D+00  1.49D+00
                    CP:  1.39D+00  1.51D+00  1.64D+00  1.71D+00
 E= -2346.67645894629     Delta-E=        0.000000000624 Rises=F Damp=F
 DIIS: error= 2.31D-08 at cycle  10 NSaved=  10.
 NSaved=10 IEnMin= 9 EnMin= -2346.67645894691     IErMin= 9 ErrMin= 1.51D-08
 ErrMax= 2.31D-08 EMaxC= 1.00D-01 BMatC= 6.26D-14 BMatP= 9.09D-14
 IDIUse=1 WtCom= 1.00D+00 WtEn= 0.00D+00
 Coeff-Com:  0.101D-02-0.607D-03-0.247D-02 0.162D-02 0.126D-01-0.154D-01
 Coeff-Com: -0.103D+00 0.118D+00 0.513D+00 0.475D+00
 Coeff:      0.101D-02-0.607D-03-0.247D-02 0.162D-02 0.126D-01-0.154D-01
 Coeff:     -0.103D+00 0.118D+00 0.513D+00 0.475D+00
 Gap=     0.250 Goal=   None    Shift=    0.000
 RMSDP=1.96D-08 MaxDP=5.87D-07 DE= 6.24D-10 OVMax= 7.34D-08

 Cycle  20  Pass 1  IDiag  1:
 RMSU=  8.95D-09    CP:  1.00D+00  1.13D+00  2.32D+00  1.21D+00  1.49D+00
                    CP:  1.39D+00  1.55D+00  1.83D+00  2.15D+00  1.57D+00
 E= -2346.67645894646     Delta-E=       -0.000000000171 Rises=F Damp=F
 DIIS: error= 3.29D-08 at cycle  11 NSaved=  11.
 NSaved=11 IEnMin= 9 EnMin= -2346.67645894691     IErMin= 9 ErrMin= 1.51D-08
 ErrMax= 3.29D-08 EMaxC= 1.00D-01 BMatC= 1.15D-13 BMatP= 6.26D-14
 IDIUse=1 WtCom= 1.00D+00 WtEn= 0.00D+00
 Coeff-Com:  0.221D-02-0.613D-03-0.506D-02 0.451D-03 0.185D-01-0.946D-02
 Coeff-Com: -0.123D+00 0.872D-01 0.525D+00 0.813D+00-0.308D+00
 Coeff:      0.221D-02-0.613D-03-0.506D-02 0.451D-03 0.185D-01-0.946D-02
 Coeff:     -0.123D+00 0.872D-01 0.525D+00 0.813D+00-0.308D+00
 Gap=     0.250 Goal=   None    Shift=    0.000
 RMSDP=1.14D-08 MaxDP=4.60D-07 DE=-1.71D-10 OVMax= 6.82D-09

 Cycle  21  Pass 1  IDiag  1:
 RMSU=  6.13D-09    CP:  1.00D+00  1.13D+00  2.32D+00  1.21D+00  1.49D+00
                    CP:  1.39D+00  1.54D+00  1.71D+00  2.05D+00  1.32D+00
                    CP:  6.62D-01
 E= -2346.67645894666     Delta-E=       -0.000000000198 Rises=F Damp=F
 DIIS: error= 2.50D-08 at cycle  12 NSaved=  12.
 NSaved=12 IEnMin= 9 EnMin= -2346.67645894691     IErMin= 9 ErrMin= 1.51D-08
 ErrMax= 2.50D-08 EMaxC= 1.00D-01 BMatC= 1.08D-13 BMatP= 6.26D-14
 IDIUse=1 WtCom= 1.00D+00 WtEn= 0.00D+00
 Coeff-Com:  0.221D-02-0.540D-03-0.502D-02 0.190D-03 0.177D-01-0.734D-02
 Coeff-Com: -0.114D+00 0.714D-01 0.451D+00 0.869D+00-0.618D+00 0.334D+00
 Coeff:      0.221D-02-0.540D-03-0.502D-02 0.190D-03 0.177D-01-0.734D-02
 Coeff:     -0.114D+00 0.714D-01 0.451D+00 0.869D+00-0.618D+00 0.334D+00
 Gap=     0.250 Goal=   None    Shift=    0.000
 RMSDP=9.10D-09 MaxDP=3.45D-07 DE=-1.98D-10 OVMax= 1.33D-08

 SCF Done:  E(RHF) =  -2346.67645895     A.U. after   21 cycles
             Convg  =    0.9104D-08             -V/T =  2.0017
 KE= 2.342800936263D+03 PE=-2.271932236909D+04 EE= 9.397552544219D+03
 Leave Link  502 at Tue Feb 11 21:24:10 2014, MaxMem= 8257536000 cpu:  127338.1
 (Enter /apps/gaussian/g09_c01/g09/l801.exe)
 Range of M.O.s used for correlation:     1  1101
 NBasis=  1159 NAE=   184 NBE=   184 NFC=     0 NFV=     0
 NROrb=   1101 NOA=   184 NOB=   184 NVA=   917 NVB=   917

 **** Warning!!: The largest alpha MO coefficient is  0.11908131D+03

 Leave Link  801 at Tue Feb 11 21:24:10 2014, MaxMem= 8257536000 cpu:       0.5
 (Enter /apps/gaussian/g09_c01/g09/l1002.exe)
 Minotr:  Closed shell wavefunction.
          Direct CPHF calculation.
          Differentiating once with respect to electric field.
                with respect to dipole field.
          Electric field/nuclear overlap derivatives assumed to be zero.
          Requested convergence is 1.0D-08 RMS, and 1.0D-07 maximum.
          Secondary convergence is 1.0D-12 RMS, and 1.0D-12 maximum.
          NewPWx=F KeepS1=T KeepF1=T KeepIn=T MapXYZ=F SortEE=F KeepMc=T.
          MDV=    8257535508 using IRadAn=       2.
          Solving linear equations simultaneously, MaxMat=      72.
          There are     3 degrees of freedom in the 1st order CPHF.  IDoFFX=0.
      3 vectors produced by pass  0 Test12= 5.62D-12 3.33D-08 XBig12= 4.24D+02 7.28D+00.
 AX will form     3 AO Fock derivatives at one time.
 FoFCou: FMM=T IPFlag=           0 FMFlag=      100000 FMFlg1=        2001
         NFxFlg=           0 DoJE=F BraDBF=F KetDBF=F FulRan=T
         Omega=  0.000000  0.000000  1.000000  0.000000  0.000000 ICntrl=       0 IOpCl=  0
         NMat0=    3 NMatS0=    3 NMatT0=    0 NMatD0=    3 NMtDS0=    0 NMtDT0=    0
         I1Cent=           0 NGrid=           0.
 Symmetry not used in FoFCou.
 FMM levels:  10  Number of levels for PrismC:   9
      3 vectors produced by pass  1 Test12= 5.62D-12 3.33D-08 XBig12= 5.43D+01 9.49D-01.
      3 vectors produced by pass  2 Test12= 5.62D-12 3.33D-08 XBig12= 7.92D+00 3.69D-01.
      3 vectors produced by pass  3 Test12= 5.62D-12 3.33D-08 XBig12= 5.82D-01 1.46D-01.
      3 vectors produced by pass  4 Test12= 5.62D-12 3.33D-08 XBig12= 1.89D-01 1.16D-01.
      3 vectors produced by pass  5 Test12= 5.62D-12 3.33D-08 XBig12= 5.49D-02 6.57D-02.
      3 vectors produced by pass  6 Test12= 5.62D-12 3.33D-08 XBig12= 5.64D-03 1.50D-02.
      3 vectors produced by pass  7 Test12= 5.62D-12 3.33D-08 XBig12= 1.74D-03 1.07D-02.
      3 vectors produced by pass  8 Test12= 5.62D-12 3.33D-08 XBig12= 2.33D-04 3.06D-03.
      3 vectors produced by pass  9 Test12= 5.62D-12 3.33D-08 XBig12= 7.94D-05 2.36D-03.
      3 vectors produced by pass 10 Test12= 5.62D-12 3.33D-08 XBig12= 1.16D-05 5.64D-04.
      3 vectors produced by pass 11 Test12= 5.62D-12 3.33D-08 XBig12= 3.77D-06 3.67D-04.
      3 vectors produced by pass 12 Test12= 5.62D-12 3.33D-08 XBig12= 4.38D-07 1.18D-04.
      3 vectors produced by pass 13 Test12= 5.62D-12 3.33D-08 XBig12= 5.10D-08 4.03D-05.
      3 vectors produced by pass 14 Test12= 5.62D-12 3.33D-08 XBig12= 8.48D-09 1.40D-05.
      3 vectors produced by pass 15 Test12= 5.62D-12 3.33D-08 XBig12= 1.29D-09 6.29D-06.
      3 vectors produced by pass 16 Test12= 5.62D-12 3.33D-08 XBig12= 3.45D-10 3.60D-06.
      3 vectors produced by pass 17 Test12= 5.62D-12 3.33D-08 XBig12= 6.45D-11 1.35D-06.
      3 vectors produced by pass 18 Test12= 5.62D-12 3.33D-08 XBig12= 1.18D-11 9.29D-07.
      3 vectors produced by pass 19 Test12= 5.62D-12 3.33D-08 XBig12= 2.42D-12 2.07D-07.
      1 vectors produced by pass 20 Test12= 5.62D-12 3.33D-08 XBig12= 6.97D-13 2.12D-07.
      1 vectors produced by pass 21 Test12= 5.62D-12 3.33D-08 XBig12= 1.06D-13 5.37D-08.
 Inverted reduced A of dimension    62 with in-core refinement.
 FullF1:  Do perturbations    1 to     3.
 SCF Polarizability for W=    0.000000:
                1             2             3 
      1  0.536949D+03
      2  0.775382D-04  0.522430D+03
      3  0.263038D-04  0.219459D-03  0.518907D+03
 Isotropic polarizability for W=    0.000000      526.10 Bohr**3.
 SCF Static Hyperpolarizability:
 K=  1 block:
                1 
      1  0.178177D+03
 K=  2 block:
                1             2 
      1  0.277987D-02
      2  0.647528D+02  0.120235D-02
 K=  3 block:
                1             2             3 
      1 -0.286412D-03
      2  0.966082D-04  0.160840D-04
      3  0.588590D+02 -0.272246D-02 -0.712414D-03
 End of Minotr Frequency-dependent properties file   721 does not exist.
 End of Minotr Frequency-dependent properties file   722 does not exist.
 Leave Link 1002 at Wed Feb 12 02:47:27 2014, MaxMem= 8257536000 cpu:  232725.9
 (Enter /apps/gaussian/g09_c01/g09/l601.exe)
 Copying SCF densities to generalized density rwf, IOpCl= 0 IROHF=0.

 **********************************************************************

            Population analysis using the SCF density.

 **********************************************************************

 Alpha  occ. eigenvalues --  -20.64220 -11.35540 -11.35483 -11.30559 -11.30558
 Alpha  occ. eigenvalues --  -11.30486 -11.30486 -11.30405 -11.30404 -11.30328
 Alpha  occ. eigenvalues --  -11.30327 -11.30253 -11.30253 -11.30209 -11.30207
 Alpha  occ. eigenvalues --  -11.30202 -11.30201 -11.30189 -11.30168 -11.30160
 Alpha  occ. eigenvalues --  -11.30146 -11.30134 -11.30126 -11.30116 -11.30112
 Alpha  occ. eigenvalues --  -11.30104 -11.30099 -11.30096 -11.30079 -11.30077
 Alpha  occ. eigenvalues --  -11.30070 -11.30066 -11.30053 -11.30052 -11.30044
 Alpha  occ. eigenvalues --  -11.30040 -11.30015 -11.30010 -11.30006 -11.29992
 Alpha  occ. eigenvalues --  -11.29984 -11.29975 -11.29975 -11.29973 -11.29966
 Alpha  occ. eigenvalues --  -11.29965 -11.29950 -11.29945 -11.29943 -11.29924
 Alpha  occ. eigenvalues --  -11.29922 -11.29911 -11.29909 -11.29881 -11.29879
 Alpha  occ. eigenvalues --  -11.29872 -11.29871 -11.29758 -11.29757 -11.29754
 Alpha  occ. eigenvalues --  -11.29754  -1.47420  -1.30389  -1.28198  -1.28144
 Alpha  occ. eigenvalues --   -1.27336  -1.23502  -1.23408  -1.23352  -1.23343
 Alpha  occ. eigenvalues --   -1.21993  -1.18390  -1.18230  -1.17835  -1.14590
 Alpha  occ. eigenvalues --   -1.14382  -1.14366  -1.12887  -1.08025  -1.08009
 Alpha  occ. eigenvalues --   -1.07899  -1.07762  -1.07170  -1.06066  -1.06062
 Alpha  occ. eigenvalues --   -1.05882  -1.04084  -0.99378  -0.99375  -0.99130
 Alpha  occ. eigenvalues --   -0.99076  -0.97382  -0.96635  -0.96238  -0.95690
 Alpha  occ. eigenvalues --   -0.90498  -0.90241  -0.89721  -0.87557  -0.86600
 Alpha  occ. eigenvalues --   -0.86578  -0.86386  -0.86295  -0.86155  -0.86111
 Alpha  occ. eigenvalues --   -0.85258  -0.81037  -0.78218  -0.77350  -0.76779
 Alpha  occ. eigenvalues --   -0.76544  -0.75579  -0.74860  -0.74807  -0.74649
 Alpha  occ. eigenvalues --   -0.74643  -0.72008  -0.71945  -0.71774  -0.69205
 Alpha  occ. eigenvalues --   -0.68682  -0.68050  -0.67316  -0.66036  -0.65758
 Alpha  occ. eigenvalues --   -0.65351  -0.65229  -0.64678  -0.64171  -0.63610
 Alpha  occ. eigenvalues --   -0.63036  -0.62845  -0.62837  -0.62667  -0.62392
 Alpha  occ. eigenvalues --   -0.62264  -0.61943  -0.61756  -0.61522  -0.60772
 Alpha  occ. eigenvalues --   -0.60199  -0.60112  -0.59055  -0.58623  -0.57984
 Alpha  occ. eigenvalues --   -0.57954  -0.57562  -0.56676  -0.56557  -0.56554
 Alpha  occ. eigenvalues --   -0.56269  -0.55795  -0.54322  -0.53037  -0.52648
 Alpha  occ. eigenvalues --   -0.52041  -0.51996  -0.51340  -0.51149  -0.51052
 Alpha  occ. eigenvalues --   -0.50787  -0.50702  -0.48477  -0.48355  -0.47825
 Alpha  occ. eigenvalues --   -0.47504  -0.47019  -0.46903  -0.46575  -0.46398
 Alpha  occ. eigenvalues --   -0.39209  -0.37053  -0.36769  -0.36686  -0.36339
 Alpha  occ. eigenvalues --   -0.36134  -0.35817  -0.35604  -0.34732  -0.30775
 Alpha  occ. eigenvalues --   -0.29732  -0.29303  -0.29182  -0.28726
 Alpha virt. eigenvalues --   -0.03712  -0.03338  -0.02380   0.02594   0.03079
 Alpha virt. eigenvalues --    0.03987   0.04011   0.07400   0.07408   0.07428
 Alpha virt. eigenvalues --    0.07492   0.07765   0.07863   0.08032   0.09277
 Alpha virt. eigenvalues --    0.09345   0.09347   0.09499   0.10258   0.10381
 Alpha virt. eigenvalues --    0.10404   0.10412   0.10418   0.11299   0.11351
 Alpha virt. eigenvalues --    0.11357   0.11368   0.11387   0.11449   0.11530
 Alpha virt. eigenvalues --    0.12438   0.12815   0.12824   0.12873   0.12986
 Alpha virt. eigenvalues --    0.13133   0.13169   0.13180   0.13214   0.13381
 Alpha virt. eigenvalues --    0.15125   0.15420   0.15429   0.15482   0.15488
 Alpha virt. eigenvalues --    0.15696   0.15734   0.15746   0.15936   0.16101
 Alpha virt. eigenvalues --    0.16240   0.16522   0.16528   0.16758   0.16852
 Alpha virt. eigenvalues --    0.17166   0.17368   0.17389   0.17723   0.18490
 Alpha virt. eigenvalues --    0.18593   0.18689   0.18732   0.18798   0.18805
 Alpha virt. eigenvalues --    0.18826   0.18882   0.19004   0.21291   0.21304
 Alpha virt. eigenvalues --    0.21415   0.21764   0.22084   0.23100   0.23269
 Alpha virt. eigenvalues --    0.23457   0.23559   0.23561   0.23623   0.23642
 Alpha virt. eigenvalues --    0.23692   0.23764   0.23784   0.23852   0.24324
 Alpha virt. eigenvalues --    0.24376   0.24861   0.24910   0.25047   0.25688
 Alpha virt. eigenvalues --    0.25825   0.25858   0.25888   0.26089   0.26183
 Alpha virt. eigenvalues --    0.26368   0.26408   0.27523   0.27622   0.27841
 Alpha virt. eigenvalues --    0.27892   0.27913   0.28165   0.28507   0.29097
 Alpha virt. eigenvalues --    0.29177   0.29251   0.29336   0.29352   0.29484
 Alpha virt. eigenvalues --    0.30397   0.30535   0.30674   0.30948   0.31021
 Alpha virt. eigenvalues --    0.31038   0.31049   0.31448   0.32573   0.32610
 Alpha virt. eigenvalues --    0.32792   0.33206   0.33407   0.33831   0.34158
 Alpha virt. eigenvalues --    0.34250   0.34256   0.34262   0.34453   0.34651
 Alpha virt. eigenvalues --    0.34748   0.34755   0.34870   0.34903   0.35103
 Alpha virt. eigenvalues --    0.35153   0.35328   0.35349   0.35405   0.35445
 Alpha virt. eigenvalues --    0.35587   0.35795   0.35817   0.36130   0.36138
 Alpha virt. eigenvalues --    0.36142   0.36311   0.36384   0.36426   0.36455
 Alpha virt. eigenvalues --    0.36485   0.36510   0.36531   0.36531   0.36672
 Alpha virt. eigenvalues --    0.36674   0.36676   0.36728   0.36801   0.36864
 Alpha virt. eigenvalues --    0.36941   0.37041   0.37336   0.37471   0.37496
 Alpha virt. eigenvalues --    0.37636   0.37698   0.37782   0.38031   0.38257
 Alpha virt. eigenvalues --    0.38339   0.38359   0.38415   0.38454   0.38504
 Alpha virt. eigenvalues --    0.38557   0.38712   0.38740   0.38755   0.38805
 Alpha virt. eigenvalues --    0.38865   0.38972   0.39042   0.39064   0.39092
 Alpha virt. eigenvalues --    0.39108   0.39362   0.39396   0.39585   0.40544
 Alpha virt. eigenvalues --    0.40700   0.40786   0.40803   0.40810   0.41225
 Alpha virt. eigenvalues --    0.41495   0.41540   0.41555   0.41587   0.41613
 Alpha virt. eigenvalues --    0.41856   0.41885   0.41976   0.41983   0.42016
 Alpha virt. eigenvalues --    0.42056   0.42175   0.42218   0.42279   0.42342
 Alpha virt. eigenvalues --    0.42517   0.42579   0.42586   0.43337   0.43531
 Alpha virt. eigenvalues --    0.43916   0.44007   0.45081   0.45199   0.45252
 Alpha virt. eigenvalues --    0.45269   0.45607   0.45669   0.45836   0.45889
 Alpha virt. eigenvalues --    0.45948   0.46026   0.46107   0.46168   0.46182
 Alpha virt. eigenvalues --    0.46283   0.46368   0.46481   0.46585   0.46955
 Alpha virt. eigenvalues --    0.47119   0.48784   0.49009   0.49188   0.49483
 Alpha virt. eigenvalues --    0.49755   0.51139   0.51381   0.51774   0.51954
 Alpha virt. eigenvalues --    0.52005   0.52066   0.52167   0.53299   0.54226
 Alpha virt. eigenvalues --    0.54352   0.54996   0.56428   0.56432   0.56776
 Alpha virt. eigenvalues --    0.57541   0.57930   0.58839   0.59213   0.59723
 Alpha virt. eigenvalues --    0.60013   0.60047   0.60395   0.65980   0.66456
 Alpha virt. eigenvalues --    0.66712   0.66789   0.68951   0.69146   0.69411
 Alpha virt. eigenvalues --    0.69699   0.70029   0.70164   0.70804   0.71179
 Alpha virt. eigenvalues --    0.71212   0.71425   0.71862   0.72096   0.73569
 Alpha virt. eigenvalues --    0.73580   0.74195   0.74264   0.74749   0.74932
 Alpha virt. eigenvalues --    0.75054   0.75610   0.78989   0.79388   0.79734
 Alpha virt. eigenvalues --    0.79952   0.80140   0.80778   0.82080   0.82472
 Alpha virt. eigenvalues --    0.82585   0.82691   0.82732   0.82743   0.83045
 Alpha virt. eigenvalues --    0.83308   0.83384   0.83637   0.83914   0.85973
 Alpha virt. eigenvalues --    0.86680   0.86893   0.87195   0.87704   0.89438
 Alpha virt. eigenvalues --    0.89648   0.90008   0.90725   0.90964   0.91000
 Alpha virt. eigenvalues --    0.91120   0.91344   0.92501   0.92882   0.92952
 Alpha virt. eigenvalues --    0.92993   0.93236   0.93687   0.93749   0.94173
 Alpha virt. eigenvalues --    0.94250   0.94334   0.94373   0.94673   0.96897
 Alpha virt. eigenvalues --    0.97184   0.97240   0.97372   0.97490   0.97638
 Alpha virt. eigenvalues --    0.97729   0.98072   0.99276   0.99471   0.99974
 Alpha virt. eigenvalues --    0.99996   0.99998   1.01454   1.01634   1.01740
 Alpha virt. eigenvalues --    1.02000   1.02277   1.02343   1.02360   1.02442
 Alpha virt. eigenvalues --    1.02487   1.02777   1.02954   1.03109   1.03632
 Alpha virt. eigenvalues --    1.04486   1.05267   1.05473   1.05876   1.05991
 Alpha virt. eigenvalues --    1.06062   1.06429   1.06610   1.06641   1.06801
 Alpha virt. eigenvalues --    1.06884   1.06916   1.06950   1.07048   1.07348
 Alpha virt. eigenvalues --    1.07525   1.07872   1.07987   1.08263   1.08378
 Alpha virt. eigenvalues --    1.08690   1.09059   1.09235   1.09405   1.09556
 Alpha virt. eigenvalues --    1.09696   1.10032   1.10096   1.10194   1.10243
 Alpha virt. eigenvalues --    1.10261   1.10547   1.11350   1.11621   1.11758
 Alpha virt. eigenvalues --    1.12314   1.12409   1.12520   1.12656   1.12673
 Alpha virt. eigenvalues --    1.13323   1.14305   1.14633   1.15012   1.15097
 Alpha virt. eigenvalues --    1.15861   1.16446   1.16621   1.16713   1.17426
 Alpha virt. eigenvalues --    1.17471   1.17989   1.18153   1.18232   1.18520
 Alpha virt. eigenvalues --    1.18521   1.18852   1.18942   1.19342   1.19551
 Alpha virt. eigenvalues --    1.20139   1.20390   1.20712   1.20885   1.21031
 Alpha virt. eigenvalues --    1.21060   1.21614   1.21915   1.22370   1.22384
 Alpha virt. eigenvalues --    1.22760   1.22801   1.24599   1.25080   1.25749
 Alpha virt. eigenvalues --    1.26876   1.27513   1.27642   1.27790   1.27854
 Alpha virt. eigenvalues --    1.28096   1.28689   1.28792   1.29718   1.30284
 Alpha virt. eigenvalues --    1.30288   1.30446   1.30771   1.30855   1.30932
 Alpha virt. eigenvalues --    1.31690   1.32197   1.32272   1.32557   1.33379
 Alpha virt. eigenvalues --    1.33887   1.34382   1.34632   1.35187   1.35473
 Alpha virt. eigenvalues --    1.35850   1.35851   1.35866   1.36241   1.36604
 Alpha virt. eigenvalues --    1.36791   1.36903   1.37134   1.37138   1.37921
 Alpha virt. eigenvalues --    1.38069   1.38186   1.38214   1.38786   1.39031
 Alpha virt. eigenvalues --    1.39210   1.39557   1.39697   1.39733   1.39902
 Alpha virt. eigenvalues --    1.39949   1.40334   1.41065   1.41120   1.41478
 Alpha virt. eigenvalues --    1.41574   1.42107   1.42174   1.43498   1.43587
 Alpha virt. eigenvalues --    1.43869   1.43978   1.44270   1.45019   1.45085
 Alpha virt. eigenvalues --    1.45254   1.45355   1.45854   1.45944   1.46083
 Alpha virt. eigenvalues --    1.46178   1.46403   1.46425   1.46760   1.46783
 Alpha virt. eigenvalues --    1.46847   1.47001   1.47078   1.47244   1.47444
 Alpha virt. eigenvalues --    1.47604   1.47651   1.47807   1.49165   1.51573
 Alpha virt. eigenvalues --    1.52756   1.54284   1.54955   1.55623   1.55662
 Alpha virt. eigenvalues --    1.55666   1.56874   1.57860   1.58468   1.58922
 Alpha virt. eigenvalues --    1.58936   1.59125   1.59537   1.59580   1.60229
 Alpha virt. eigenvalues --    1.60754   1.61280   1.63936   1.67212   1.68465
 Alpha virt. eigenvalues --    1.68574   1.69135   1.69141   1.69385   1.69526
 Alpha virt. eigenvalues --    1.69889   1.69908   1.70560   1.70971   1.71624
 Alpha virt. eigenvalues --    1.71968   1.72541   1.74445   1.75570   1.76139
 Alpha virt. eigenvalues --    1.76358   1.76434   1.76619   1.76764   1.76921
 Alpha virt. eigenvalues --    1.76943   1.77531   1.78238   1.78918   1.80469
 Alpha virt. eigenvalues --    1.80745   1.81210   1.81913   1.82091   1.86832
 Alpha virt. eigenvalues --    1.87066   1.87175   1.87841   1.88563   1.91180
 Alpha virt. eigenvalues --    1.92044   1.92572   1.93198   1.93478   1.94723
 Alpha virt. eigenvalues --    1.95851   1.97341   1.98045   1.98101   1.98728
 Alpha virt. eigenvalues --    1.98810   1.98890   1.99041   1.99147   1.99151
 Alpha virt. eigenvalues --    1.99344   1.99363   2.01137   2.01199   2.01804
 Alpha virt. eigenvalues --    2.01978   2.02514   2.03130   2.03302   2.03329
 Alpha virt. eigenvalues --    2.03669   2.03872   2.03929   2.04360   2.04774
 Alpha virt. eigenvalues --    2.04870   2.04985   2.05791   2.05921   2.06000
 Alpha virt. eigenvalues --    2.07763   2.08480   2.08667   2.09336   2.10116
 Alpha virt. eigenvalues --    2.10610   2.10645   2.10668   2.10710   2.11020
 Alpha virt. eigenvalues --    2.11627   2.11874   2.14922   2.16521   2.17976
 Alpha virt. eigenvalues --    2.18114   2.18261   2.18387   2.18428   2.18472
 Alpha virt. eigenvalues --    2.19950   2.20323   2.22189   2.22754   2.22856
 Alpha virt. eigenvalues --    2.24415   2.25933   2.26042   2.27422   2.28372
 Alpha virt. eigenvalues --    2.28626   2.28992   2.29083   2.29350   2.29387
 Alpha virt. eigenvalues --    2.29451   2.29471   2.29605   2.29632   2.29690
 Alpha virt. eigenvalues --    2.30003   2.30267   2.30347   2.30977   2.31032
 Alpha virt. eigenvalues --    2.31095   2.31592   2.32280   2.32439   2.33528
 Alpha virt. eigenvalues --    2.34495   2.34597   2.36195   2.36227   2.36581
 Alpha virt. eigenvalues --    2.37879   2.38106   2.38171   2.38329   2.38474
 Alpha virt. eigenvalues --    2.38487   2.38749   2.39781   2.40029   2.40673
 Alpha virt. eigenvalues --    2.40773   2.41018   2.42260   2.42891   2.42903
 Alpha virt. eigenvalues --    2.43410   2.44090   2.44263   2.44692   2.45250
 Alpha virt. eigenvalues --    2.45971   2.45979   2.46379   2.47026   2.47116
 Alpha virt. eigenvalues --    2.49202   2.50186   2.51063   2.51700   2.51852
 Alpha virt. eigenvalues --    2.52893   2.53417   2.54191   2.54224   2.56124
 Alpha virt. eigenvalues --    2.57465   2.57561   2.57854   2.58094   2.58414
 Alpha virt. eigenvalues --    2.58608   2.58747   2.59010   2.59318   2.59413
 Alpha virt. eigenvalues --    2.59473   2.59695   2.59762   2.59925   2.59976
 Alpha virt. eigenvalues --    2.60342   2.63445   2.63757   2.63934   2.66461
 Alpha virt. eigenvalues --    2.67197   2.68016   2.68525   2.68768   2.68945
 Alpha virt. eigenvalues --    2.70994   2.71286   2.71632   2.74186   2.74218
 Alpha virt. eigenvalues --    2.74341   2.75753   2.75818   2.76448   2.76608
 Alpha virt. eigenvalues --    2.77109   2.77749   2.77994   2.78090   2.78410
 Alpha virt. eigenvalues --    2.78571   2.80092   2.80760   2.81359   2.81718
 Alpha virt. eigenvalues --    2.82612   2.83116   2.83445   2.83600   2.84703
 Alpha virt. eigenvalues --    2.85927   2.86807   2.88764   2.89090   2.89572
 Alpha virt. eigenvalues --    2.89574   2.90077   2.90130   2.90854   2.90940
 Alpha virt. eigenvalues --    2.91191   2.91611   2.92035   2.92267   2.92285
 Alpha virt. eigenvalues --    2.92640   2.94085   2.94355   2.95722   2.96580
 Alpha virt. eigenvalues --    2.97696   2.98139   2.98145   2.98214   2.98703
 Alpha virt. eigenvalues --    2.98788   2.98928   2.99252   2.99758   2.99843
 Alpha virt. eigenvalues --    3.00718   3.00893   3.02648   3.02812   3.03545
 Alpha virt. eigenvalues --    3.03702   3.03887   3.04460   3.06435   3.06865
 Alpha virt. eigenvalues --    3.07630   3.09151   3.11164   3.11682   3.12326
 Alpha virt. eigenvalues --    3.13217   3.14223   3.14403   3.14570   3.15438
 Alpha virt. eigenvalues --    3.15723   3.15863   3.17167   3.17881   3.18175
 Alpha virt. eigenvalues --    3.18337   3.18378   3.18883   3.18896   3.19211
 Alpha virt. eigenvalues --    3.19240   3.19344   3.19372   3.19529   3.20183
 Alpha virt. eigenvalues --    3.20793   3.21369   3.21551   3.21552   3.23790
 Alpha virt. eigenvalues --    3.24719   3.25089   3.25697   3.26129   3.26596
 Alpha virt. eigenvalues --    3.29860   3.29958   3.30486   3.30712   3.30717
 Alpha virt. eigenvalues --    3.32633   3.33153   3.33971   3.34490   3.34721
 Alpha virt. eigenvalues --    3.34757   3.37518   3.43039   3.43612   3.43998
 Alpha virt. eigenvalues --    3.45615   3.45756   3.50138   3.51039   3.52234
 Alpha virt. eigenvalues --    3.53315   3.57232   3.58455   3.59506   3.59541
 Alpha virt. eigenvalues --    3.60208   3.61487   3.61518   3.62417   3.64724
 Alpha virt. eigenvalues --    3.75821   3.76896   3.77486   3.77940   3.80945
 Alpha virt. eigenvalues --    3.83556   3.83988   3.92083   3.92652   3.94333
 Alpha virt. eigenvalues --    3.97730   4.60775   4.68807   4.69133   4.69157
 Alpha virt. eigenvalues --    4.75396   4.76147   4.76356   4.76573   4.76619
 Alpha virt. eigenvalues --    4.79437   4.81384   4.82029   4.82094   4.82275
 Alpha virt. eigenvalues --    4.82306   4.82681   4.83353   4.83720   4.83944
 Alpha virt. eigenvalues --    4.84119   4.84260   4.84322   4.84476   4.84486
 Alpha virt. eigenvalues --    4.84541   4.85138   4.86167   4.86479   4.92275
 Alpha virt. eigenvalues --    4.92338   4.92394   4.92419   4.92687   4.94875
 Alpha virt. eigenvalues --    4.94911   4.96642   5.03027   5.03060   5.03190
 Alpha virt. eigenvalues --    5.03820   5.10559   5.10816   5.10973   5.11457
 Alpha virt. eigenvalues --    5.14333   5.24392   5.25417   5.26173   5.26415
 Alpha virt. eigenvalues --    5.32535   5.33001   5.33171   5.33371   5.36623
 Alpha virt. eigenvalues --    5.59261   5.59697   5.60264   5.62004   5.74003
 Alpha virt. eigenvalues --    5.74688   5.76015
          Condensed to atoms (all electrons):
 Mulliken atomic charges:
              1
     1  C   -0.038486
     2  C   -0.038494
     3  C    0.039749
     4  C   -0.083963
     5  C   -0.083904
     6  C    0.039785
     7  C   -0.049726
     8  C   -0.008083
     9  C   -0.004127
    10  C   -0.042492
    11  C   -0.042426
    12  C   -0.004099
    13  C   -0.008062
    14  C   -0.049741
    15  C   -0.000863
    16  C    0.232678
    17  C   -0.156450
    18  C    0.358901
    19  C   -0.156446
    20  C    0.232687
    21  C   -0.000804
    22  C    0.035631
    23  C   -0.073888
    24  C    0.013723
    25  C    0.027573
    26  C   -0.011894
    27  C    0.015879
    28  C   -0.011896
    29  C    0.027586
    30  C    0.013778
    31  C   -0.073900
    32  C    0.035642
    33  C   -0.001049
    34  C    0.232706
    35  C   -0.156581
    36  C    0.358878
    37  C   -0.156616
    38  C    0.232670
    39  C   -0.001043
    40  C   -0.049891
    41  C   -0.008131
    42  C    0.013544
    43  C    0.027643
    44  C   -0.011932
    45  C    0.015763
    46  C   -0.011974
    47  C    0.027606
    48  C    0.013544
    49  C   -0.008148
    50  C   -0.049884
    51  C    0.039937
    52  C   -0.083910
    53  C   -0.083928
    54  C    0.039918
    55  C   -0.038312
    56  C   -0.038305
    57  C   -0.004031
    58  C   -0.042500
    59  C   -0.042488
    60  C   -0.004010
    61  O   -0.343341
 Sum of Mulliken atomic charges =   0.00000
 Mulliken charges with hydrogens summed into heavy atoms:
              1
     1  C   -0.038486
     2  C   -0.038494
     3  C    0.039749
     4  C   -0.083963
     5  C   -0.083904
     6  C    0.039785
     7  C   -0.049726
     8  C   -0.008083
     9  C   -0.004127
    10  C   -0.042492
    11  C   -0.042426
    12  C   -0.004099
    13  C   -0.008062
    14  C   -0.049741
    15  C   -0.000863
    16  C    0.232678
    17  C   -0.156450
    18  C    0.358901
    19  C   -0.156446
    20  C    0.232687
    21  C   -0.000804
    22  C    0.035631
    23  C   -0.073888
    24  C    0.013723
    25  C    0.027573
    26  C   -0.011894
    27  C    0.015879
    28  C   -0.011896
    29  C    0.027586
    30  C    0.013778
    31  C   -0.073900
    32  C    0.035642
    33  C   -0.001049
    34  C    0.232706
    35  C   -0.156581
    36  C    0.358878
    37  C   -0.156616
    38  C    0.232670
    39  C   -0.001043
    40  C   -0.049891
    41  C   -0.008131
    42  C    0.013544
    43  C    0.027643
    44  C   -0.011932
    45  C    0.015763
    46  C   -0.011974
    47  C    0.027606
    48  C    0.013544
    49  C   -0.008148
    50  C   -0.049884
    51  C    0.039937
    52  C   -0.083910
    53  C   -0.083928
    54  C    0.039918
    55  C   -0.038312
    56  C   -0.038305
    57  C   -0.004031
    58  C   -0.042500
    59  C   -0.042488
    60  C   -0.004010
    61  O   -0.343341
 Sum of Mulliken charges with hydrogens summed into heavy atoms =   0.00000
 Electronic spatial extent (au):  <R**2>=          17689.7330
 Charge=              0.0000 electrons
 Dipole moment (field-independent basis, Debye):
    X=              1.2787    Y=              0.0000    Z=              0.0000  Tot=              1.2787
 Quadrupole moment (field-independent basis, Debye-Ang):
   XX=           -360.4161   YY=           -349.6382   ZZ=           -349.9222
   XY=              0.0003   XZ=              0.0000   YZ=              0.0000
 Traceless Quadrupole moment (field-independent basis, Debye-Ang):
   XX=             -7.0906   YY=              3.6873   ZZ=              3.4033
   XY=              0.0003   XZ=              0.0000   YZ=              0.0000
 Octapole moment (field-independent basis, Debye-Ang**2):
  XXX=             31.0471  YYY=             -0.0003  ZZZ=              0.0001  XYY=            -18.5169
  XXY=             -0.0017  XXZ=             -0.0001  XZZ=            -12.2894  YZZ=              0.0008
  YYZ=              0.0001  XYZ=             -0.0003
 Hexadecapole moment (field-independent basis, Debye-Ang**3):
 XXXX=         -10361.4967 YYYY=          -9183.6184 ZZZZ=          -9115.6906 XXXY=              0.0055
 XXXZ=              0.0002 YYYX=             -0.0020 YYYZ=              0.0012 ZZZX=              0.0001
 ZZZY=             -0.0035 XXYY=          -3164.3951 XXZZ=          -3181.8470 YYZZ=          -3058.6141
 XXYZ=              0.0015 YYXZ=              0.0000 ZZXY=             -0.0009
 N-N= 8.632292429664D+03 E-N=-2.271932236909D+04  KE= 2.342800936262D+03
  Exact polarizability: 536.949   0.000 522.430   0.000   0.000 518.907
 Approx polarizability: 773.204   0.000 751.677   0.000   0.000 744.858
 No NMR shielding tensors so no spin-rotation constants.
 Leave Link  601 at Wed Feb 12 02:47:31 2014, MaxMem= 8257536000 cpu:      39.2
 (Enter /apps/gaussian/g09_c01/g09/l602.exe)
 Merz-Kollman atomic radii used.

 **********************************************************************

            Electrostatic Properties Using The SCF Density

 **********************************************************************

       Atomic Center    1 is at   0.117939  3.484316 -0.696953
       Atomic Center    2 is at   0.117942  3.484190  0.697566
       Atomic Center    3 is at  -1.056179  3.030090  1.423661
       Atomic Center    4 is at  -2.183570  2.586984  0.727894
       Atomic Center    5 is at  -2.183572  2.587116 -0.727431
       Atomic Center    6 is at  -1.056182  3.030340 -1.423124
       Atomic Center    7 is at  -0.615245  2.307870 -2.594725
       Atomic Center    8 is at   0.837690  2.307910 -2.599128
       Atomic Center    9 is at   1.291496  3.036087 -1.425180
       Atomic Center   10 is at   2.420058  2.602799 -0.726710
       Atomic Center   11 is at   2.420063  2.602675  0.727165
       Atomic Center   12 is at   1.291498  3.035833  1.425711
       Atomic Center   13 is at   0.837697  2.307449  2.599533
       Atomic Center   14 is at  -0.615240  2.307412  2.595133
       Atomic Center   15 is at  -1.321045  1.176170  3.017317
       Atomic Center   16 is at  -2.501716  0.737214  2.298586
       Atomic Center   17 is at  -2.941917  1.452547  1.194781
       Atomic Center   18 is at  -3.517143  0.771340  0.000060
       Atomic Center   19 is at  -2.941914  1.452763 -1.194522
       Atomic Center   20 is at  -2.501722  0.737623 -2.298456
       Atomic Center   21 is at  -1.321051  1.176704 -3.017113
       Atomic Center   22 is at  -0.593961  0.000311 -3.462409
       Atomic Center   23 is at   0.801260  0.000293 -3.471025
       Atomic Center   24 is at   1.532339  1.176368 -3.027458
       Atomic Center   25 is at   2.707751  0.727433 -2.303741
       Atomic Center   26 is at   3.142694  1.425341 -1.175417
       Atomic Center   27 is at   3.591010  0.697709  0.000058
       Atomic Center   28 is at   3.142696  1.425134  1.175661
       Atomic Center   29 is at   2.707758  0.727025  2.303863
       Atomic Center   30 is at   1.532349  1.175833  3.027660
       Atomic Center   31 is at   0.801269 -0.000318  3.471024
       Atomic Center   32 is at  -0.593951 -0.000299  3.462409
       Atomic Center   33 is at  -1.321074 -1.176671  3.017107
       Atomic Center   34 is at  -2.501750 -0.737559  2.298466
       Atomic Center   35 is at  -2.941948 -1.452683  1.194526
       Atomic Center   36 is at  -3.517175 -0.771245 -0.000053
       Atomic Center   37 is at  -2.941957 -1.452466 -1.194773
       Atomic Center   38 is at  -2.501756 -0.737149 -2.298585
       Atomic Center   39 is at  -1.321083 -1.176137 -3.017305
       Atomic Center   40 is at  -0.615310 -2.307399 -2.595129
       Atomic Center   41 is at   0.837623 -2.307473 -2.599531
       Atomic Center   42 is at   1.532301 -1.175874 -3.027649
       Atomic Center   43 is at   2.707744 -0.727095 -2.303871
       Atomic Center   44 is at   3.142650 -1.425207 -1.175667
       Atomic Center   45 is at   3.590982 -0.697792 -0.000065
       Atomic Center   46 is at   3.142652 -1.425413  1.175408
       Atomic Center   47 is at   2.707748 -0.727502  2.303737
       Atomic Center   48 is at   1.532307 -1.176409  3.027440
       Atomic Center   49 is at   0.837630 -2.307932  2.599123
       Atomic Center   50 is at  -0.615303 -2.307858  2.594723
       Atomic Center   51 is at  -1.056263 -3.030320  1.423126
       Atomic Center   52 is at  -2.183635 -2.587054  0.727436
       Atomic Center   53 is at  -2.183639 -2.586925 -0.727890
       Atomic Center   54 is at  -1.056268 -3.030069 -1.423657
       Atomic Center   55 is at   0.117842 -3.484198 -0.697571
       Atomic Center   56 is at   0.117845 -3.484323  0.696958
       Atomic Center   57 is at   1.291411 -3.036126  1.425168
       Atomic Center   58 is at   2.419980 -2.602858  0.726702
       Atomic Center   59 is at   2.419979 -2.602730 -0.727167
       Atomic Center   60 is at   1.291405 -3.035874 -1.425706
       Atomic Center   61 is at  -4.711532  0.000057  0.000006
    1657 points will be used for fitting atomic charges
 Fitting point charges to electrostatic potential
 Charges from ESP fit, RMS=   0.00404 RRMS=   0.52439:
 Charge=   0.00000 Dipole=     1.6666     0.0000     0.0000 Tot=     1.6666
              1
     1  C   -0.014149
     2  C   -0.014154
     3  C   -0.004253
     4  C    0.027521
     5  C    0.027502
     6  C   -0.004243
     7  C    0.043883
     8  C   -0.059608
     9  C    0.029829
    10  C   -0.007611
    11  C   -0.007640
    12  C    0.029855
    13  C   -0.059625
    14  C    0.043895
    15  C    0.001293
    16  C    0.027924
    17  C   -0.320184
    18  C    0.885557
    19  C   -0.320163
    20  C    0.027890
    21  C    0.001321
    22  C   -0.032339
    23  C    0.011282
    24  C    0.026894
    25  C   -0.010454
    26  C   -0.001511
    27  C    0.013518
    28  C   -0.001497
    29  C   -0.010463
    30  C    0.026911
    31  C    0.011263
    32  C   -0.032321
    33  C    0.001324
    34  C    0.027830
    35  C   -0.320109
    36  C    0.885509
    37  C   -0.320121
    38  C    0.027855
    39  C    0.001324
    40  C    0.043873
    41  C   -0.059654
    42  C    0.026956
    43  C   -0.010566
    44  C   -0.001422
    45  C    0.013439
    46  C   -0.001412
    47  C   -0.010576
    48  C    0.026974
    49  C   -0.059672
    50  C    0.043888
    51  C   -0.004227
    52  C    0.027492
    53  C    0.027487
    54  C   -0.004218
    55  C   -0.014163
    56  C   -0.014169
    57  C    0.029890
    58  C   -0.007669
    59  C   -0.007654
    60  C    0.029878
    61  O   -0.714212
 Charges from ESP fit with hydrogens summed into heavy atoms:
              1
     1  C   -0.014149
     2  C   -0.014154
     3  C   -0.004253
     4  C    0.027521
     5  C    0.027502
     6  C   -0.004243
     7  C    0.043883
     8  C   -0.059608
     9  C    0.029829
    10  C   -0.007611
    11  C   -0.007640
    12  C    0.029855
    13  C   -0.059625
    14  C    0.043895
    15  C    0.001293
    16  C    0.027924
    17  C   -0.320184
    18  C    0.885557
    19  C   -0.320163
    20  C    0.027890
    21  C    0.001321
    22  C   -0.032339
    23  C    0.011282
    24  C    0.026894
    25  C   -0.010454
    26  C   -0.001511
    27  C    0.013518
    28  C   -0.001497
    29  C   -0.010463
    30  C    0.026911
    31  C    0.011263
    32  C   -0.032321
    33  C    0.001324
    34  C    0.027830
    35  C   -0.320109
    36  C    0.885509
    37  C   -0.320121
    38  C    0.027855
    39  C    0.001324
    40  C    0.043873
    41  C   -0.059654
    42  C    0.026956
    43  C   -0.010566
    44  C   -0.001422
    45  C    0.013439
    46  C   -0.001412
    47  C   -0.010576
    48  C    0.026974
    49  C   -0.059672
    50  C    0.043888
    51  C   -0.004227
    52  C    0.027492
    53  C    0.027487
    54  C   -0.004218
    55  C   -0.014163
    56  C   -0.014169
    57  C    0.029890
    58  C   -0.007669
    59  C   -0.007654
    60  C    0.029878
    61  O   -0.714212
 -----------------------------------------------------------------

              Electrostatic Properties (Atomic Units)

 -----------------------------------------------------------------
    Center     Electric         -------- Electric Field --------
               Potential          X             Y             Z
 -----------------------------------------------------------------
    1 Atom    -14.660664
    2 Atom    -14.660664
    3 Atom    -14.662822
    4 Atom    -14.657552
    5 Atom    -14.657552
    6 Atom    -14.662822
    7 Atom    -14.661401
    8 Atom    -14.660647
    9 Atom    -14.660772
   10 Atom    -14.660119
   11 Atom    -14.660119
   12 Atom    -14.660771
   13 Atom    -14.660647
   14 Atom    -14.661401
   15 Atom    -14.660377
   16 Atom    -14.655313
   17 Atom    -14.658546
   18 Atom    -14.598747
   19 Atom    -14.658547
   20 Atom    -14.655313
   21 Atom    -14.660377
   22 Atom    -14.658693
   23 Atom    -14.659969
   24 Atom    -14.660072
   25 Atom    -14.660052
   26 Atom    -14.660008
   27 Atom    -14.659939
   28 Atom    -14.660008
   29 Atom    -14.660052
   30 Atom    -14.660072
   31 Atom    -14.659969
   32 Atom    -14.658693
   33 Atom    -14.660377
   34 Atom    -14.655314
   35 Atom    -14.658546
   36 Atom    -14.598746
   37 Atom    -14.658545
   38 Atom    -14.655314
   39 Atom    -14.660377
   40 Atom    -14.661403
   41 Atom    -14.660649
   42 Atom    -14.660073
   43 Atom    -14.660053
   44 Atom    -14.660007
   45 Atom    -14.659939
   46 Atom    -14.660008
   47 Atom    -14.660053
   48 Atom    -14.660072
   49 Atom    -14.660649
   50 Atom    -14.661402
   51 Atom    -14.662822
   52 Atom    -14.657552
   53 Atom    -14.657553
   54 Atom    -14.662822
   55 Atom    -14.660664
   56 Atom    -14.660664
   57 Atom    -14.660772
   58 Atom    -14.660120
   59 Atom    -14.660120
   60 Atom    -14.660772
   61 Atom    -22.241125
 -----------------------------------------------------------------
 Leave Link  602 at Wed Feb 12 02:47:32 2014, MaxMem= 8257536000 cpu:      14.2
 (Enter /apps/gaussian/g09_c01/g09/l9999.exe)
 1\1\GINC-CX1-5-7-1\SP\RHF\6-31+G(d)\C60O1\SPF310\12-Feb-2014\0\\#p HF/
 6-31+g* sp nosymm pop=ESP polar\\6-31+g* HF C60O_B3LYP_631GSTAR_opt\\0
 ,1\C,0,0.117939,3.484316,-0.696953\C,0,0.117942,3.48419,0.697566\C,0,-
 1.056179,3.03009,1.423661\C,0,-2.18357,2.586984,0.727894\C,0,-2.183572
 ,2.587116,-0.727431\C,0,-1.056182,3.03034,-1.423124\C,0,-0.615245,2.30
 787,-2.594725\C,0,0.83769,2.30791,-2.599128\C,0,1.291496,3.036087,-1.4
 2518\C,0,2.420058,2.602799,-0.72671\C,0,2.420063,2.602675,0.727165\C,0
 ,1.291498,3.035833,1.425711\C,0,0.837697,2.307449,2.599533\C,0,-0.6152
 4,2.307412,2.595133\C,0,-1.321045,1.17617,3.017317\C,0,-2.501716,0.737
 214,2.298586\C,0,-2.941917,1.452547,1.194781\C,0,-3.517143,0.77134,0.0
 0006\C,0,-2.941914,1.452763,-1.194522\C,0,-2.501722,0.737623,-2.298456
 \C,0,-1.321051,1.176704,-3.017113\C,0,-0.593961,0.000311,-3.462409\C,0
 ,0.80126,0.000293,-3.471025\C,0,1.532339,1.176368,-3.027458\C,0,2.7077
 51,0.727433,-2.303741\C,0,3.142694,1.425341,-1.175417\C,0,3.59101,0.69
 7709,0.000058\C,0,3.142696,1.425134,1.175661\C,0,2.707758,0.727025,2.3
 03863\C,0,1.532349,1.175833,3.02766\C,0,0.801269,-0.000318,3.471024\C,
 0,-0.593951,-0.000299,3.462409\C,0,-1.321074,-1.176671,3.017107\C,0,-2
 .50175,-0.737559,2.298466\C,0,-2.941948,-1.452683,1.194526\C,0,-3.5171
 75,-0.771245,-0.000053\C,0,-2.941957,-1.452466,-1.194773\C,0,-2.501756
 ,-0.737149,-2.298585\C,0,-1.321083,-1.176137,-3.017305\C,0,-0.61531,-2
 .307399,-2.595129\C,0,0.837623,-2.307473,-2.599531\C,0,1.532301,-1.175
 874,-3.027649\C,0,2.707744,-0.727095,-2.303871\C,0,3.14265,-1.425207,-
 1.175667\C,0,3.590982,-0.697792,-0.000065\C,0,3.142652,-1.425413,1.175
 408\C,0,2.707748,-0.727502,2.303737\C,0,1.532307,-1.176409,3.02744\C,0
 ,0.83763,-2.307932,2.599123\C,0,-0.615303,-2.307858,2.594723\C,0,-1.05
 6263,-3.03032,1.423126\C,0,-2.183635,-2.587054,0.727436\C,0,-2.183639,
 -2.586925,-0.72789\C,0,-1.056268,-3.030069,-1.423657\C,0,0.117842,-3.4
 84198,-0.697571\C,0,0.117845,-3.484323,0.696958\C,0,1.291411,-3.036126
 ,1.425168\C,0,2.41998,-2.602858,0.726702\C,0,2.419979,-2.60273,-0.7271
 67\C,0,1.291405,-3.035874,-1.425706\O,0,-4.711532,0.000057,0.000006\\V
 ersion=EM64L-G09RevC.01\HF=-2346.6764589\RMSD=9.104e-09\Dipole=0.50308
 64,-0.0000162,-0.0000007\Polar=536.9494114,0.0000775,522.4295671,0.000
 0263,0.0002195,518.9074444\HyperPolar=178.1769241,0.0027799,64.7528202
 ,0.0012024,-0.0002864,0.0000966,0.0000161,58.8590133,-0.0027225,-0.000
 7124\Quadrupole=-5.2717092,2.7414355,2.5302737,0.0001971,0.0000329,-0.
 000025\PG=C01 [X(C60O1)]\\@


 A MAN SHOULD NEVER BE ASHAMED TO OWN HE HAS BEEN IN THE WRONG
 WHICH IS BUT SAYING IN OTHER WORDS,
 THAT HE IS WISER TODAY THAN HE WAS YESTERDAY.

                          -- JONATHAN SWIFT
 Job cpu time:  4 days  4 hours  4 minutes 42.3 seconds.
 File lengths (MBytes):  RWF=    711 Int=      0 D2E=      0 Chk=     56 Scr=      1
 Normal termination of Gaussian 09 at Wed Feb 12 02:47:32 2014.
