 Entering Gaussian System, Link 0=g03
 Input=c60_B3LYP_631Gstarenergy.com
 Output=c60_B3LYP_631Gstarenergy.log
 Initial command:
 /apps/gaussian/g09/g09/l1.exe /tmp/pbs.5351444.cx1/Gau-3405.inp -scrdir=/tmp/pbs.5351444.cx1/
 Entering Link 1 = /apps/gaussian/g09/g09/l1.exe PID=      3412.
  
 Copyright (c) 1988,1990,1992,1993,1995,1998,2003,2009, Gaussian, Inc.
                  All Rights Reserved.
  
 This is part of the Gaussian(R) 09 program.  It is based on
 the Gaussian(R) 03 system (copyright 2003, Gaussian, Inc.),
 the Gaussian(R) 98 system (copyright 1998, Gaussian, Inc.),
 the Gaussian(R) 94 system (copyright 1995, Gaussian, Inc.),
 the Gaussian 92(TM) system (copyright 1992, Gaussian, Inc.),
 the Gaussian 90(TM) system (copyright 1990, Gaussian, Inc.),
 the Gaussian 88(TM) system (copyright 1988, Gaussian, Inc.),
 the Gaussian 86(TM) system (copyright 1986, Carnegie Mellon
 University), and the Gaussian 82(TM) system (copyright 1983,
 Carnegie Mellon University). Gaussian is a federally registered
 trademark of Gaussian, Inc.
  
 This software contains proprietary and confidential information,
 including trade secrets, belonging to Gaussian, Inc.
  
 This software is provided under written license and may be
 used, copied, transmitted, or stored only in accord with that
 written license.
  
 The following legend is applicable only to US Government
 contracts under FAR:
  
                    RESTRICTED RIGHTS LEGEND
  
 Use, reproduction and disclosure by the US Government is
 subject to restrictions as set forth in subparagraphs (a)
 and (c) of the Commercial Computer Software - Restricted
 Rights clause in FAR 52.227-19.
  
 Gaussian, Inc.
 340 Quinnipiac St., Bldg. 40, Wallingford CT 06492
  
  
 ---------------------------------------------------------------
 Warning -- This program may not be used in any manner that
 competes with the business of Gaussian, Inc. or will provide
 assistance to any competitor of Gaussian, Inc.  The licensee
 of this program is prohibited from giving any competitor of
 Gaussian, Inc. access to this program.  By using this program,
 the user acknowledges that Gaussian, Inc. is engaged in the
 business of creating and licensing software in the field of
 computational chemistry and represents and warrants to the
 licensee that it is not a competitor of Gaussian, Inc. and that
 it will not use this program in any manner prohibited above.
 ---------------------------------------------------------------
  

 Cite this work as:
 Gaussian 09, Revision A.02,
 M. J. Frisch, G. W. Trucks, H. B. Schlegel, G. E. Scuseria, 
 M. A. Robb, J. R. Cheeseman, G. Scalmani, V. Barone, B. Mennucci, 
 G. A. Petersson, H. Nakatsuji, M. Caricato, X. Li, H. P. Hratchian, 
 A. F. Izmaylov, J. Bloino, G. Zheng, J. L. Sonnenberg, M. Hada, 
 M. Ehara, K. Toyota, R. Fukuda, J. Hasegawa, M. Ishida, T. Nakajima, 
 Y. Honda, O. Kitao, H. Nakai, T. Vreven, J. A. Montgomery, Jr., 
 J. E. Peralta, F. Ogliaro, M. Bearpark, J. J. Heyd, E. Brothers, 
 K. N. Kudin, V. N. Staroverov, R. Kobayashi, J. Normand, 
 K. Raghavachari, A. Rendell, J. C. Burant, S. S. Iyengar, J. Tomasi, 
 M. Cossi, N. Rega, J. M. Millam, M. Klene, J. E. Knox, J. B. Cross, 
 V. Bakken, C. Adamo, J. Jaramillo, R. Gomperts, R. E. Stratmann, 
 O. Yazyev, A. J. Austin, R. Cammi, C. Pomelli, J. W. Ochterski, 
 R. L. Martin, K. Morokuma, V. G. Zakrzewski, G. A. Voth, 
 P. Salvador, J. J. Dannenberg, S. Dapprich, A. D. Daniels, 
 O. Farkas, J. B. Foresman, J. V. Ortiz, J. Cioslowski, 
 and D. J. Fox, Gaussian, Inc., Wallingford CT, 2009.
 
 ******************************************
 Gaussian 09:  EM64L-G09RevA.02 11-Jun-2009
                18-Mar-2011 
 ******************************************
 %chk=c60_B3LYP_631Gstarenergy.chk
 %Mem=11000Mb
 %nproc=8
 Will use up to    8 processors via shared memory.
 ------------------------------------------------
 #p sp guess=read b3lyp/6-31g* geom=AllCheckpoint
 ------------------------------------------------
 1/29=7,38=1/1;
 2/12=2,40=1/2;
 3/5=1,6=6,7=1,11=2,14=-4,16=1,25=1,30=1,74=-5,116=-2/1,2,3;
 4/5=1/1;
 5/5=2,38=6/2;
 6/7=2,8=2,9=2,10=2,28=1/1;
 99/5=1,9=1/99;
 Leave Link    1 at Fri Mar 18 21:10:10 2011, MaxMem= 1441792000 cpu:       0.3
 (Enter /apps/gaussian/g09/g09/l101.exe)
 -------------------
 Title Card Required
 -------------------
 Redundant internal coordinates taken from checkpoint file:
 c60_B3LYP_631Gstarenergy.chk
 Charge =  0 Multiplicity = 1
 C,0,-1.1759079398,-0.3822888879,3.3279753383
 C,0,-0.7267224648,1.0000676775,3.3277350693
 C,0,-1.4242402121,1.9601050071,2.5936479769
 C,0,-2.5996733894,1.5779740034,1.8292923197
 C,0,-3.0311590103,0.2511907959,1.8296689643
 C,0,-2.3047561064,-0.7489972727,2.5942253036
 C,0,-0.0000015947,-1.2366911895,3.3281928195
 C,0,1.1759052013,-0.3822862051,3.3279662008
 C,0,0.7267215017,1.0000686496,3.3277368403
 C,0,1.424238995,1.9601055254,2.5936451307
 C,0,-0.6975990447,2.9605245678,1.8297110605
 C,0,-2.6001748648,2.3426449719,0.5932973346
 C,0,-3.031938478,1.7494684288,-0.5936359178
 C,0,-3.4802204775,0.3668162533,-0.5933271537
 C,0,-3.4802385036,-0.3668203583,0.5933311931
 C,0,-3.0319318078,-1.7494703865,0.593639395
 C,0,-2.3047270264,-1.9851697362,1.8298565531
 C,0,-1.1758700637,-2.805117316,1.829865176
 C,0,0.0000002012,-2.4234316224,2.5942045021
 C,0,2.3047593885,-0.7490053951,2.5942347257
 C,0,2.3047208908,-1.985167981,1.8298535548
 C,0,1.1758788583,-2.8051270716,1.8298731976
 C,0,0.7267736015,-3.4237382579,0.593659348
 C,0,-0.7267715956,-3.423738139,0.5936623587
 C,0,-1.4242608005,-3.196906117,-0.5932589271
 C,0,-2.6001835479,-2.3426521396,-0.593295515
 C,0,-2.5996721524,-1.577970299,-1.8292854383
 C,0,-3.0311617717,-0.2511911109,-1.8296685229
 C,0,-1.4242608303,3.1969122808,0.5932634045
 C,0,0.0000021017,1.2366913535,-3.3281899728
 C,0,0.0000003058,2.4234317864,-2.5942016554
 C,0,1.1758705707,2.80511748,-1.8298623293
 C,0,2.3047275334,1.9851699002,-1.8298537064
 C,0,2.3047566134,0.7489974367,-2.594222457
 C,0,0.7267229718,-1.0000675135,-3.3277322226
 C,0,-0.7267209947,-1.0000684856,-3.3277339936
 C,0,-1.1759046943,0.3822863691,-3.3279633541
 C,0,-2.3047588815,0.7490055591,-2.5942318791
 C,0,-2.3047203838,1.985168145,-1.8298507082
 C,0,-1.1758783513,2.8051272356,-1.8298703509
 C,0,0.7267721026,3.423738303,-0.593659512
 C,0,1.4242613075,3.196906281,0.5932617737
 C,0,2.6001840549,2.3426523036,0.5932983617
 C,0,3.0319323148,1.7494705505,-0.5936365484
 C,0,3.4802390106,0.3668205223,-0.5933283464
 C,0,3.0311595173,-0.2511906319,-1.8296661176
 C,0,2.5996738964,-1.5779738394,-1.829289473
 C,0,1.4242407191,-1.9601048431,-2.5936451302
 C,0,-1.424238488,-1.9601053614,-2.593642284
 C,0,-0.6975993647,-2.9605221634,-1.8297085065
 C,0,0.6975995517,-2.9605244038,-1.8297082138
 C,0,1.4242613373,-3.1969121168,-0.5932605579
 C,0,2.6001753718,-2.3426448079,-0.5932944879
 C,0,3.031938985,-1.7494682648,0.5936387645
 C,0,3.4802209845,-0.3668160893,0.5933300004
 C,0,3.0311622787,0.2511912749,1.8296713696
 C,0,2.5996726594,1.577970463,1.829288285
 C,0,-0.7267730945,3.4237384219,-0.5936565013
 C,0,0.6975998717,2.9605223274,1.8297113532
 C,0,1.1759084468,0.3822890519,-3.3279724917
 Recover connectivity data from disk.
                    Isotopes and Nuclear Properties:
 (Nuclear quadrupole moments (NQMom) in fm**2, nuclear magnetic moments (NMagM)
  in nuclear magnetons)

  Atom         1           2           3           4           5           6           7           8           9          10
 IAtWgt=          12          12          12          12          12          12          12          12          12          12
 AtmWgt=  12.0000000  12.0000000  12.0000000  12.0000000  12.0000000  12.0000000  12.0000000  12.0000000  12.0000000  12.0000000
 NucSpn=           0           0           0           0           0           0           0           0           0           0
 AtZEff=  -3.6000000  -3.6000000  -3.6000000  -3.6000000  -3.6000000  -3.6000000  -3.6000000  -3.6000000  -3.6000000  -3.6000000
 NQMom=    0.0000000   0.0000000   0.0000000   0.0000000   0.0000000   0.0000000   0.0000000   0.0000000   0.0000000   0.0000000
 NMagM=    0.0000000   0.0000000   0.0000000   0.0000000   0.0000000   0.0000000   0.0000000   0.0000000   0.0000000   0.0000000

  Atom        11          12          13          14          15          16          17          18          19          20
 IAtWgt=          12          12          12          12          12          12          12          12          12          12
 AtmWgt=  12.0000000  12.0000000  12.0000000  12.0000000  12.0000000  12.0000000  12.0000000  12.0000000  12.0000000  12.0000000
 NucSpn=           0           0           0           0           0           0           0           0           0           0
 AtZEff=  -3.6000000  -3.6000000  -3.6000000  -3.6000000  -3.6000000  -3.6000000  -3.6000000  -3.6000000  -3.6000000  -3.6000000
 NQMom=    0.0000000   0.0000000   0.0000000   0.0000000   0.0000000   0.0000000   0.0000000   0.0000000   0.0000000   0.0000000
 NMagM=    0.0000000   0.0000000   0.0000000   0.0000000   0.0000000   0.0000000   0.0000000   0.0000000   0.0000000   0.0000000

  Atom        21          22          23          24          25          26          27          28          29          30
 IAtWgt=          12          12          12          12          12          12          12          12          12          12
 AtmWgt=  12.0000000  12.0000000  12.0000000  12.0000000  12.0000000  12.0000000  12.0000000  12.0000000  12.0000000  12.0000000
 NucSpn=           0           0           0           0           0           0           0           0           0           0
 AtZEff=  -3.6000000  -3.6000000  -3.6000000  -3.6000000  -3.6000000  -3.6000000  -3.6000000  -3.6000000  -3.6000000  -3.6000000
 NQMom=    0.0000000   0.0000000   0.0000000   0.0000000   0.0000000   0.0000000   0.0000000   0.0000000   0.0000000   0.0000000
 NMagM=    0.0000000   0.0000000   0.0000000   0.0000000   0.0000000   0.0000000   0.0000000   0.0000000   0.0000000   0.0000000

  Atom        31          32          33          34          35          36          37          38          39          40
 IAtWgt=          12          12          12          12          12          12          12          12          12          12
 AtmWgt=  12.0000000  12.0000000  12.0000000  12.0000000  12.0000000  12.0000000  12.0000000  12.0000000  12.0000000  12.0000000
 NucSpn=           0           0           0           0           0           0           0           0           0           0
 AtZEff=  -3.6000000  -3.6000000  -3.6000000  -3.6000000  -3.6000000  -3.6000000  -3.6000000  -3.6000000  -3.6000000  -3.6000000
 NQMom=    0.0000000   0.0000000   0.0000000   0.0000000   0.0000000   0.0000000   0.0000000   0.0000000   0.0000000   0.0000000
 NMagM=    0.0000000   0.0000000   0.0000000   0.0000000   0.0000000   0.0000000   0.0000000   0.0000000   0.0000000   0.0000000

  Atom        41          42          43          44          45          46          47          48          49          50
 IAtWgt=          12          12          12          12          12          12          12          12          12          12
 AtmWgt=  12.0000000  12.0000000  12.0000000  12.0000000  12.0000000  12.0000000  12.0000000  12.0000000  12.0000000  12.0000000
 NucSpn=           0           0           0           0           0           0           0           0           0           0
 AtZEff=  -3.6000000  -3.6000000  -3.6000000  -3.6000000  -3.6000000  -3.6000000  -3.6000000  -3.6000000  -3.6000000  -3.6000000
 NQMom=    0.0000000   0.0000000   0.0000000   0.0000000   0.0000000   0.0000000   0.0000000   0.0000000   0.0000000   0.0000000
 NMagM=    0.0000000   0.0000000   0.0000000   0.0000000   0.0000000   0.0000000   0.0000000   0.0000000   0.0000000   0.0000000

  Atom        51          52          53          54          55          56          57          58          59          60
 IAtWgt=          12          12          12          12          12          12          12          12          12          12
 AtmWgt=  12.0000000  12.0000000  12.0000000  12.0000000  12.0000000  12.0000000  12.0000000  12.0000000  12.0000000  12.0000000
 NucSpn=           0           0           0           0           0           0           0           0           0           0
 AtZEff=  -3.6000000  -3.6000000  -3.6000000  -3.6000000  -3.6000000  -3.6000000  -3.6000000  -3.6000000  -3.6000000  -3.6000000
 NQMom=    0.0000000   0.0000000   0.0000000   0.0000000   0.0000000   0.0000000   0.0000000   0.0000000   0.0000000   0.0000000
 NMagM=    0.0000000   0.0000000   0.0000000   0.0000000   0.0000000   0.0000000   0.0000000   0.0000000   0.0000000   0.0000000
 Leave Link  101 at Fri Mar 18 21:10:10 2011, MaxMem= 1441792000 cpu:       0.8
 (Enter /apps/gaussian/g09/g09/l202.exe)
 Stoichiometry    C60
 Framework group  CI[X(C60)]
 Deg. of freedom    87
 Full point group                 CI      NOp   2
 Largest Abelian subgroup         CI      NOp   2
 Largest concise Abelian subgroup CI      NOp   2
                         Standard orientation:                         
 ---------------------------------------------------------------------
 Center     Atomic      Atomic             Coordinates (Angstroms)
 Number     Number       Type             X           Y           Z
 ---------------------------------------------------------------------
      1          6           0       -1.175908   -0.382289    3.327974
      2          6           0       -0.726723    1.000068    3.327734
      3          6           0       -1.424240    1.960105    2.593647
      4          6           0       -2.599674    1.577974    1.829291
      5          6           0       -3.031159    0.251191    1.829668
      6          6           0       -2.304756   -0.748997    2.594224
      7          6           0       -0.000002   -1.236691    3.328191
      8          6           0        1.175905   -0.382286    3.327965
      9          6           0        0.726721    1.000069    3.327735
     10          6           0        1.424239    1.960105    2.593644
     11          6           0       -0.697599    2.960524    1.829710
     12          6           0       -2.600175    2.342645    0.593296
     13          6           0       -3.031939    1.749468   -0.593637
     14          6           0       -3.480221    0.366816   -0.593329
     15          6           0       -3.480239   -0.366820    0.593330
     16          6           0       -3.031932   -1.749470    0.593638
     17          6           0       -2.304727   -1.985170    1.829855
     18          6           0       -1.175870   -2.805117    1.829864
     19          6           0        0.000000   -2.423432    2.594203
     20          6           0        2.304759   -0.749005    2.594233
     21          6           0        2.304721   -1.985168    1.829852
     22          6           0        1.175879   -2.805127    1.829872
     23          6           0        0.726773   -3.423738    0.593658
     24          6           0       -0.726772   -3.423738    0.593661
     25          6           0       -1.424261   -3.196906   -0.593260
     26          6           0       -2.600184   -2.342652   -0.593297
     27          6           0       -2.599672   -1.577970   -1.829287
     28          6           0       -3.031162   -0.251191   -1.829670
     29          6           0       -1.424261    3.196912    0.593262
     30          6           0        0.000002    1.236691   -3.328191
     31          6           0        0.000000    2.423432   -2.594203
     32          6           0        1.175870    2.805117   -1.829864
     33          6           0        2.304727    1.985170   -1.829855
     34          6           0        2.304756    0.748997   -2.594224
     35          6           0        0.726723   -1.000068   -3.327734
     36          6           0       -0.726721   -1.000069   -3.327735
     37          6           0       -1.175905    0.382286   -3.327965
     38          6           0       -2.304759    0.749005   -2.594233
     39          6           0       -2.304721    1.985168   -1.829852
     40          6           0       -1.175879    2.805127   -1.829872
     41          6           0        0.726772    3.423738   -0.593661
     42          6           0        1.424261    3.196906    0.593260
     43          6           0        2.600184    2.342652    0.593297
     44          6           0        3.031932    1.749470   -0.593638
     45          6           0        3.480239    0.366820   -0.593330
     46          6           0        3.031159   -0.251191   -1.829668
     47          6           0        2.599674   -1.577974   -1.829291
     48          6           0        1.424240   -1.960105   -2.593647
     49          6           0       -1.424239   -1.960105   -2.593644
     50          6           0       -0.697600   -2.960522   -1.829710
     51          6           0        0.697599   -2.960524   -1.829710
     52          6           0        1.424261   -3.196912   -0.593262
     53          6           0        2.600175   -2.342645   -0.593296
     54          6           0        3.031939   -1.749468    0.593637
     55          6           0        3.480221   -0.366816    0.593329
     56          6           0        3.031162    0.251191    1.829670
     57          6           0        2.599672    1.577970    1.829287
     58          6           0       -0.726773    3.423738   -0.593658
     59          6           0        0.697600    2.960522    1.829710
     60          6           0        1.175908    0.382289   -3.327974
 ---------------------------------------------------------------------
 Rotational constants (GHZ):      0.0835634      0.0835532      0.0835500
 Leave Link  202 at Fri Mar 18 21:10:10 2011, MaxMem= 1441792000 cpu:       0.0
 (Enter /apps/gaussian/g09/g09/l301.exe)
 Standard basis: 6-31G(d) (6D, 7F)
 Ernie: Thresh=  0.10000D-02 Tol=  0.10000D-05 Strict=F.
 There are   450 symmetry adapted basis functions of AG  symmetry.
 There are   450 symmetry adapted basis functions of AU  symmetry.
 Integral buffers will be    131072 words long.
 Raffenetti 2 integral format.
 Two-electron integral symmetry is turned on.
   900 basis functions,  1680 primitive gaussians,   900 cartesian basis functions
   180 alpha electrons      180 beta electrons
       nuclear repulsion energy      8327.2082345213 Hartrees.
 IExCor=  402 DFT=T Ex+Corr=B3LYP ExCW=0 ScaHFX=  0.200000
 ScaDFX=  0.800000  0.720000  1.000000  0.810000 ScalE2=  1.000000  1.000000
 IRadAn=      0 IRanWt=     -1 IRanGd=            0 ICorTp=0
 NAtoms=   60 NActive=   60 NUniq=   30 SFac= 3.00D+00 NAtFMM=   80 NAOKFM=F Big=F
 Leave Link  301 at Fri Mar 18 21:10:10 2011, MaxMem= 1441792000 cpu:       0.5
 (Enter /apps/gaussian/g09/g09/l302.exe)
 NPDir=0 NMtPBC=     1 NCelOv=     1 NCel=       1 NClECP=     1 NCelD=      1
         NCelK=      1 NCelE2=     1 NClLst=     1 CellRange=     0.0.
 One-electron integrals computed using PRISM.
 One-electron integral symmetry used in STVInt
 NBasis=   900 RedAO= T  NBF=   450   450
 NBsUse=   900 1.00D-06 NBFU=   450   450
 Precomputing XC quadrature grid using
 IXCGrd= 2 IRadAn=           0 IRanWt=          -1 IRanGd=           0 AccXCQ= 1.00D-10.
 NRdTot=    3720 NPtTot=      474000 NUsed=      500833 NTot=      500865
 NSgBfM=   790   805   805   816   830 NAtAll=    60    60.
 Leave Link  302 at Fri Mar 18 21:10:13 2011, MaxMem= 1441792000 cpu:      26.2
 (Enter /apps/gaussian/g09/g09/l303.exe)
 DipDrv:  MaxL=1.
 Leave Link  303 at Fri Mar 18 21:10:14 2011, MaxMem= 1441792000 cpu:       2.3
 (Enter /apps/gaussian/g09/g09/l401.exe)
 Initial guess read from the checkpoint file:  c60_B3LYP_631Gstarenergy.chk
 B after Tr=     0.000000    0.000000    0.000000
         Rot=    1.000000    0.000000    0.000000    0.000000 Ang=   0.00 deg.
 Guess basis will be translated and rotated to current coordinates.
 Initial guess orbital symmetries:
       Occupied  (AG) (AU) (AU) (AU) (AG) (AG) (AG) (AG) (AG) (AU)
                 (AU) (AU) (AU) (AU) (AU) (AU) (AG) (AG) (AG) (AG)
                 (AG) (AG) (AG) (AG) (AG) (AU) (AU) (AU) (AU) (AU)
                 (AU) (AU) (AU) (AG) (AG) (AG) (AG) (AG) (AG) (AG)
                 (AG) (AU) (AU) (AU) (AU) (AU) (AU) (AU) (AU) (AG)
                 (AG) (AG) (AG) (AU) (AU) (AG) (AG) (AU) (AU) (AG)
                 (AG) (AU) (AU) (AU) (AG) (AG) (AG) (AG) (AG) (AU)
                 (AU) (AU) (AU) (AU) (AU) (AU) (AG) (AG) (AG) (AG)
                 (AG) (AG) (AG) (AG) (AG) (AU) (AU) (AU) (AU) (AU)
                 (AU) (AU) (AU) (AU) (AU) (AU) (AG) (AG) (AG) (AG)
                 (AG) (AG) (AG) (AG) (AG) (AG) (AG) (AG) (AG) (AU)
                 (AU) (AU) (AU) (AU) (AU) (AU) (AU) (AU) (AU) (AU)
                 (AG) (AU) (AU) (AU) (AU) (AU) (AU) (AU) (AG) (AG)
                 (AG) (AG) (AG) (AG) (AG) (AG) (AG) (AG) (AG) (AG)
                 (AG) (AG) (AG) (AG) (AG) (AU) (AU) (AU) (AU) (AG)
                 (AG) (AG) (AG) (AG) (AU) (AU) (AU) (AU) (AU) (AU)
                 (AU) (AU) (AU) (AU) (AU) (AU) (AG) (AG) (AG) (AG)
                 (AG) (AG) (AG) (AG) (AG) (AU) (AU) (AU) (AU) (AU)
       Virtual   (AU) (AU) (AU) (AG) (AG) (AG) (AU) (AU) (AU) (AG)
                 (AG) (AG) (AG) (AG) (AU) (AU) (AU) (AU) (AU) (AG)
                 (AG) (AG) (AG) (AU) (AU) (AU) (AU) (AG) (AG) (AG)
                 (AU) (AU) (AU) (AG) (AG) (AG) (AG) (AG) (AG) (AG)
                 (AG) (AU) (AU) (AU) (AU) (AU) (AU) (AU) (AG) (AG)
                 (AG) (AG) (AG) (AG) (AG) (AG) (AG) (AU) (AU) (AU)
                 (AU) (AU) (AU) (AU) (AU) (AU) (AU) (AU) (AG) (AG)
                 (AG) (AU) (AU) (AU) (AU) (AU) (AG) (AG) (AG) (AG)
                 (AG) (AU) (AU) (AU) (AG) (AG) (AU) (AG) (AG) (AG)
                 (AG) (AG) (AG) (AG) (AU) (AU) (AU) (AG) (AG) (AG)
                 (AG) (AG) (AG) (AG) (AG) (AU) (AU) (AU) (AG) (AG)
                 (AG) (AG) (AU) (AU) (AU) (AU) (AU) (AU) (AU) (AU)
                 (AU) (AU) (AU) (AU) (AG) (AG) (AG) (AG) (AG) (AG)
                 (AG) (AG) (AG) (AG) (AU) (AU) (AU) (AU) (AU) (AU)
                 (AU) (AU) (AU) (AU) (AU) (AG) (AG) (AG) (AG) (AG)
                 (AU) (AU) (AU) (AU) (AU) (AG) (AG) (AG) (AG) (AG)
                 (AG) (AG) (AG) (AU) (AU) (AU) (AU) (AG) (AG) (AG)
                 (AG) (AG) (AG) (AG) (AU) (AU) (AU) (AU) (AU) (AU)
                 (AU) (AU) (AU) (AU) (AU) (AU) (AG) (AG) (AG) (AU)
                 (AU) (AU) (AU) (AU) (AU) (AU) (AU) (AG) (AG) (AG)
                 (AG) (AG) (AG) (AG) (AG) (AG) (AG) (AG) (AG) (AU)
                 (AU) (AU) (AU) (AU) (AU) (AU) (AG) (AG) (AG) (AG)
                 (AG) (AU) (AU) (AU) (AU) (AU) (AG) (AG) (AG) (AG)
                 (AG) (AG) (AG) (AG) (AG) (AU) (AU) (AU) (AU) (AU)
                 (AU) (AU) (AU) (AU) (AU) (AG) (AG) (AG) (AG) (AG)
                 (AU) (AU) (AU) (AG) (AG) (AG) (AU) (AU) (AU) (AG)
                 (AG) (AG) (AG) (AG) (AG) (AG) (AG) (AG) (AG) (AG)
                 (AG) (AG) (AU) (AU) (AU) (AU) (AU) (AU) (AU) (AU)
                 (AU) (AU) (AU) (AU) (AU) (AU) (AG) (AG) (AG) (AU)
                 (AU) (AU) (AG) (AG) (AG) (AG) (AG) (AG) (AG) (AG)
                 (AG) (AU) (AU) (AU) (AG) (AG) (AG) (AG) (AG) (AG)
                 (AG) (AU) (AU) (AU) (AU) (AU) (AU) (AU) (AU) (AU)
                 (AU) (AU) (AU) (AU) (AU) (AU) (AU) (AU) (AU) (AU)
                 (AG) (AG) (AG) (AG) (AG) (AG) (AG) (AG) (AG) (AG)
                 (AG) (AU) (AU) (AU) (AG) (AG) (AG) (AG) (AG) (AG)
                 (AG) (AG) (AG) (AU) (AU) (AU) (AG) (AG) (AG) (AU)
                 (AG) (AU) (AU) (AU) (AU) (AU) (AU) (AU) (AU) (AU)
                 (AG) (AG) (AG) (AU) (AU) (AU) (AU) (AU) (AU) (AU)
                 (AU) (AU) (AU) (AG) (AG) (AG) (AG) (AG) (AG) (AG)
                 (AG) (AG) (AG) (AU) (AU) (AU) (AG) (AG) (AG) (AG)
                 (AG) (AG) (AG) (AG) (AG) (AU) (AU) (AU) (AU) (AU)
                 (AG) (AG) (AG) (AG) (AG) (AU) (AU) (AU) (AU) (AU)
                 (AU) (AU) (AU) (AU) (AU) (AU) (AG) (AG) (AG) (AG)
                 (AG) (AU) (AU) (AU) (AU) (AU) (AU) (AG) (AG) (AG)
                 (AG) (AG) (AG) (AG) (AG) (AU) (AU) (AU) (AU) (AU)
                 (AG) (AG) (AG) (AG) (AU) (AU) (AU) (AU) (AU) (AU)
                 (AU) (AG) (AG) (AG) (AG) (AG) (AG) (AG) (AG) (AG)
                 (AG) (AG) (AG) (AU) (AU) (AU) (AU) (AU) (AU) (AU)
                 (AU) (AG) (AG) (AG) (AU) (AU) (AU) (AU) (AU) (AG)
                 (AG) (AG) (AG) (AG) (AU) (AU) (AU) (AG) (AG) (AG)
                 (AG) (AG) (AG) (AG) (AG) (AG) (AU) (AU) (AU) (AU)
                 (AG) (AG) (AG) (AU) (AU) (AU) (AU) (AU) (AU) (AU)
                 (AU) (AU) (AU) (AU) (AU) (AU) (AG) (AG) (AG) (AG)
                 (AU) (AU) (AU) (AU) (AG) (AG) (AG) (AU) (AU) (AU)
                 (AG) (AG) (AG) (AG) (AG) (AU) (AU) (AU) (AG) (AG)
                 (AG) (AG) (AG) (AG) (AG) (AG) (AU) (AU) (AU) (AU)
                 (AU) (AG) (AG) (AG) (AG) (AG) (AG) (AG) (AG) (AU)
                 (AU) (AU) (AU) (AU) (AU) (AU) (AU) (AU) (AU) (AU)
                 (AU) (AG) (AG) (AG) (AG) (AG) (AG) (AG) (AG) (AG)
                 (AG) (AG) (AU) (AU) (AU) (AU) (AU) (AU) (AU) (AU)
                 (AG) (AG) (AG) (AG) (AG) (AG) (AG) (AG) (AU) (AU)
                 (AU) (AU) (AU) (AG) (AG) (AG) (AU) (AU) (AU) (AU)
                 (AU) (AU) (AU) (AU) (AU) (AU) (AG) (AG) (AG) (AG)
                 (AG) (AG) (AG) (AU) (AU) (AU) (AU) (AG) (AG) (AG)
                 (AG) (AG) (AG) (AG) (AU) (AU) (AU) (AU) (AU) (AU)
                 (AU) (AU) (AU) (AG) (AG) (AG) (AG) (AG) (AG) (AU)
                 (AG) (AU) (AU) (AU) (AG) (AG) (AG) (AG) (AG) (AU)
                 (AU) (AU) (AU) (AU) (AU) (AU) (AG) (AG) (AG) (AG)
                 (AG) (AG) (AG) (AG) (AG) (AU) (AU) (AU) (AU) (AU)
                 (AU) (AU) (AU) (AU) (AU) (AU) (AG) (AG) (AG) (AG)
                 (AG) (AG) (AG) (AG) (AG) (AG) (AG) (AG) (AU) (AU)
                 (AU) (AU) (AU) (AU) (AU) (AU) (AU) (AG) (AG) (AG)
 The electronic state of the initial guess is 1-AG.
 Leave Link  401 at Fri Mar 18 21:10:28 2011, MaxMem= 1441792000 cpu:     117.7
 (Enter /apps/gaussian/g09/g09/l502.exe)
 Closed shell SCF:
 Requested convergence on RMS density matrix=1.00D-08 within 128 cycles.
 Requested convergence on MAX density matrix=1.00D-06.
 Requested convergence on             energy=1.00D-06.
 No special actions if energy rises.
 Using DIIS extrapolation, IDIIS=  1040.
 Integral symmetry usage will be decided dynamically.
       500280 words used for storage of precomputed grid.
 IEnd=     2963426 IEndB=     2963426 NGot=  1441792000 MDV=  1439656115
 LenX=  1439656115 LenY=  1438845215
 Fock matrices will be formed incrementally for  20 cycles.

 Cycle   1  Pass 1  IDiag  1:
 FoFCou: FMM=F IPFlag=           0 FMFlag=      100000 FMFlg1=           0
         NFxFlg=           0 DoJE=F BraDBF=F KetDBF=F FulRan=T
         Omega=  0.000000  0.000000  1.000000  0.000000  0.000000 ICntrl=       0 IOpCl=  0
         NMat0=    1 NMatS0=    1 NMatT0=    0 NMatD0=    1 NMtDS0=    0 NMtDT0=    0
         I1Cent=           0 NGrid=           0.
 Petite list used in FoFCou.
 E= -2286.17393324179    
 DIIS: error= 4.22D-08 at cycle   1 NSaved=   1.
 NSaved= 1 IEnMin= 1 EnMin= -2286.17393324179     IErMin= 1 ErrMin= 4.22D-08
 ErrMax= 4.22D-08 EMaxC= 1.00D-01 BMatC= 2.85D-12 BMatP= 2.85D-12
 IDIUse=1 WtCom= 1.00D+00 WtEn= 0.00D+00
 Coeff-Com:  0.100D+01
 Coeff:      0.100D+01
 Gap=     0.101 Goal=   None    Shift=    0.000
 RMSDP=6.55D-09 MaxDP=3.34D-07              OVMax= 6.80D-07

 SCF Done:  E(RB3LYP) =  -2286.17393324     A.U. after    1 cycles
             Convg  =    0.6553D-08             -V/T =  2.0094
 KE= 2.264969018119D+03 PE=-2.194554732625D+04 EE= 9.067196140364D+03
 Leave Link  502 at Fri Mar 18 21:12:04 2011, MaxMem= 1441792000 cpu:     763.0
 (Enter /apps/gaussian/g09/g09/l601.exe)
 Copying SCF densities to generalized density rwf, IOpCl= 0 IROHF=0.

 **********************************************************************

            Population analysis using the SCF density.

 **********************************************************************

 Orbital symmetries:
       Occupied  (AG) (AU) (AU) (AU) (AG) (AG) (AG) (AG) (AG) (AU)
                 (AU) (AU) (AU) (AU) (AU) (AU) (AG) (AG) (AG) (AG)
                 (AG) (AG) (AG) (AG) (AG) (AU) (AU) (AU) (AU) (AU)
                 (AU) (AU) (AU) (AG) (AG) (AG) (AG) (AG) (AG) (AG)
                 (AG) (AU) (AU) (AU) (AU) (AU) (AU) (AU) (AU) (AG)
                 (AG) (AG) (AG) (AU) (AU) (AG) (AG) (AU) (AU) (AG)
                 (AG) (AU) (AU) (AU) (AG) (AG) (AG) (AG) (AG) (AU)
                 (AU) (AU) (AU) (AU) (AU) (AU) (AG) (AG) (AG) (AG)
                 (AG) (AG) (AG) (AG) (AG) (AU) (AU) (AU) (AU) (AU)
                 (AU) (AU) (AU) (AU) (AU) (AU) (AG) (AG) (AG) (AG)
                 (AG) (AG) (AG) (AG) (AG) (AG) (AG) (AG) (AG) (AU)
                 (AU) (AU) (AU) (AU) (AU) (AU) (AU) (AU) (AU) (AU)
                 (AG) (AU) (AU) (AU) (AU) (AU) (AU) (AU) (AG) (AG)
                 (AG) (AG) (AG) (AG) (AG) (AG) (AG) (AG) (AG) (AG)
                 (AG) (AG) (AG) (AG) (AG) (AU) (AU) (AU) (AU) (AG)
                 (AG) (AG) (AG) (AG) (AU) (AU) (AU) (AU) (AU) (AU)
                 (AU) (AU) (AU) (AU) (AU) (AU) (AG) (AG) (AG) (AG)
                 (AG) (AG) (AG) (AG) (AG) (AU) (AU) (AU) (AU) (AU)
       Virtual   (AU) (AU) (AU) (AG) (AG) (AG) (AU) (AU) (AU) (AG)
                 (AG) (AG) (AG) (AG) (AU) (AU) (AU) (AU) (AU) (AG)
                 (AG) (AG) (AG) (AU) (AU) (AU) (AU) (AG) (AG) (AG)
                 (AU) (AU) (AU) (AG) (AG) (AG) (AG) (AG) (AG) (AG)
                 (AG) (AU) (AU) (AU) (AU) (AU) (AU) (AU) (AG) (AG)
                 (AG) (AG) (AG) (AG) (AG) (AG) (AG) (AU) (AU) (AU)
                 (AU) (AU) (AU) (AU) (AU) (AU) (AU) (AU) (AG) (AG)
                 (AG) (AU) (AU) (AU) (AU) (AU) (AG) (AG) (AG) (AG)
                 (AG) (AU) (AU) (AU) (AG) (AG) (AU) (AG) (AG) (AG)
                 (AG) (AG) (AG) (AG) (AU) (AU) (AU) (AG) (AG) (AG)
                 (AG) (AG) (AG) (AG) (AG) (AU) (AU) (AU) (AG) (AG)
                 (AG) (AG) (AU) (AU) (AU) (AU) (AU) (AU) (AU) (AU)
                 (AU) (AU) (AU) (AU) (AG) (AG) (AG) (AG) (AG) (AG)
                 (AG) (AG) (AG) (AG) (AU) (AU) (AU) (AU) (AU) (AU)
                 (AU) (AU) (AU) (AU) (AU) (AG) (AG) (AG) (AG) (AG)
                 (AU) (AU) (AU) (AU) (AU) (AG) (AG) (AG) (AG) (AG)
                 (AG) (AG) (AG) (AU) (AU) (AU) (AU) (AG) (AG) (AG)
                 (AG) (AG) (AG) (AG) (AU) (AU) (AU) (AU) (AU) (AU)
                 (AU) (AU) (AU) (AU) (AU) (AU) (AG) (AG) (AG) (AU)
                 (AU) (AU) (AU) (AU) (AU) (AU) (AU) (AG) (AG) (AG)
                 (AG) (AG) (AG) (AG) (AG) (AG) (AG) (AG) (AG) (AU)
                 (AU) (AU) (AU) (AU) (AU) (AU) (AG) (AG) (AG) (AG)
                 (AG) (AU) (AU) (AU) (AU) (AU) (AG) (AG) (AG) (AG)
                 (AG) (AG) (AG) (AG) (AG) (AU) (AU) (AU) (AU) (AU)
                 (AU) (AU) (AU) (AU) (AU) (AG) (AG) (AG) (AG) (AG)
                 (AU) (AU) (AU) (AG) (AG) (AG) (AU) (AU) (AU) (AG)
                 (AG) (AG) (AG) (AG) (AG) (AG) (AG) (AG) (AG) (AG)
                 (AG) (AG) (AU) (AU) (AU) (AU) (AU) (AU) (AU) (AU)
                 (AU) (AU) (AU) (AU) (AU) (AU) (AG) (AG) (AG) (AU)
                 (AU) (AU) (AG) (AG) (AG) (AG) (AG) (AG) (AG) (AG)
                 (AG) (AU) (AU) (AU) (AG) (AG) (AG) (AG) (AG) (AG)
                 (AG) (AU) (AU) (AU) (AU) (AU) (AU) (AU) (AU) (AU)
                 (AU) (AU) (AU) (AU) (AU) (AU) (AU) (AU) (AU) (AU)
                 (AG) (AG) (AG) (AG) (AG) (AG) (AG) (AG) (AG) (AG)
                 (AG) (AU) (AU) (AU) (AG) (AG) (AG) (AG) (AG) (AG)
                 (AG) (AG) (AG) (AU) (AU) (AU) (AG) (AG) (AG) (AU)
                 (AG) (AU) (AU) (AU) (AU) (AU) (AU) (AU) (AU) (AU)
                 (AG) (AG) (AG) (AU) (AU) (AU) (AU) (AU) (AU) (AU)
                 (AU) (AU) (AU) (AG) (AG) (AG) (AG) (AG) (AG) (AG)
                 (AG) (AG) (AG) (AU) (AU) (AU) (AG) (AG) (AG) (AG)
                 (AG) (AG) (AG) (AG) (AG) (AU) (AU) (AU) (AU) (AU)
                 (AG) (AG) (AG) (AG) (AG) (AU) (AU) (AU) (AU) (AU)
                 (AU) (AU) (AU) (AU) (AU) (AU) (AG) (AG) (AG) (AG)
                 (AG) (AU) (AU) (AU) (AU) (AU) (AU) (AG) (AG) (AG)
                 (AG) (AG) (AG) (AG) (AG) (AU) (AU) (AU) (AU) (AU)
                 (AG) (AG) (AG) (AG) (AU) (AU) (AU) (AU) (AU) (AU)
                 (AU) (AG) (AG) (AG) (AG) (AG) (AG) (AG) (AG) (AG)
                 (AG) (AG) (AG) (AU) (AU) (AU) (AU) (AU) (AU) (AU)
                 (AU) (AG) (AG) (AG) (AU) (AU) (AU) (AU) (AU) (AG)
                 (AG) (AG) (AG) (AG) (AU) (AU) (AU) (AG) (AG) (AG)
                 (AG) (AG) (AG) (AG) (AG) (AG) (AU) (AU) (AU) (AU)
                 (AG) (AG) (AG) (AU) (AU) (AU) (AU) (AU) (AU) (AU)
                 (AU) (AU) (AU) (AU) (AU) (AU) (AG) (AG) (AG) (AG)
                 (AU) (AU) (AU) (AU) (AG) (AG) (AG) (AU) (AU) (AU)
                 (AG) (AG) (AG) (AG) (AG) (AU) (AU) (AU) (AG) (AG)
                 (AG) (AG) (AG) (AG) (AG) (AG) (AU) (AU) (AU) (AU)
                 (AU) (AG) (AG) (AG) (AG) (AG) (AG) (AG) (AG) (AU)
                 (AU) (AU) (AU) (AU) (AU) (AU) (AU) (AU) (AU) (AU)
                 (AU) (AG) (AG) (AG) (AG) (AG) (AG) (AG) (AG) (AG)
                 (AG) (AG) (AU) (AU) (AU) (AU) (AU) (AU) (AU) (AU)
                 (AG) (AG) (AG) (AG) (AG) (AG) (AG) (AG) (AU) (AU)
                 (AU) (AU) (AU) (AG) (AG) (AG) (AU) (AU) (AU) (AU)
                 (AU) (AU) (AU) (AU) (AU) (AU) (AG) (AG) (AG) (AG)
                 (AG) (AG) (AG) (AU) (AU) (AU) (AU) (AG) (AG) (AG)
                 (AG) (AG) (AG) (AG) (AU) (AU) (AU) (AU) (AU) (AU)
                 (AU) (AU) (AU) (AG) (AG) (AG) (AG) (AG) (AG) (AU)
                 (AG) (AU) (AU) (AU) (AG) (AG) (AG) (AG) (AG) (AU)
                 (AU) (AU) (AU) (AU) (AU) (AU) (AG) (AG) (AG) (AG)
                 (AG) (AG) (AG) (AG) (AG) (AU) (AU) (AU) (AU) (AU)
                 (AU) (AU) (AU) (AU) (AU) (AU) (AG) (AG) (AG) (AG)
                 (AG) (AG) (AG) (AG) (AG) (AG) (AG) (AG) (AU) (AU)
                 (AU) (AU) (AU) (AU) (AU) (AU) (AU) (AG) (AG) (AG)
 The electronic state is 1-AG.
 Alpha  occ. eigenvalues --  -10.23173 -10.23170 -10.23167 -10.23167 -10.23161
 Alpha  occ. eigenvalues --  -10.23160 -10.23159 -10.23158 -10.23158 -10.23149
 Alpha  occ. eigenvalues --  -10.23149 -10.23148 -10.23148 -10.23147 -10.23145
 Alpha  occ. eigenvalues --  -10.23145 -10.23137 -10.23137 -10.23137 -10.23136
 Alpha  occ. eigenvalues --  -10.23135 -10.23134 -10.23133 -10.23132 -10.23131
 Alpha  occ. eigenvalues --  -10.23129 -10.23129 -10.23129 -10.23129 -10.23126
 Alpha  occ. eigenvalues --  -10.23101 -10.23100 -10.23098 -10.23096 -10.23096
 Alpha  occ. eigenvalues --  -10.23095 -10.23086 -10.23085 -10.23085 -10.23083
 Alpha  occ. eigenvalues --  -10.23083 -10.23082 -10.23082 -10.23081 -10.23078
 Alpha  occ. eigenvalues --  -10.23077 -10.23077 -10.23075 -10.23075 -10.23069
 Alpha  occ. eigenvalues --  -10.23068 -10.23067 -10.23066 -10.23058 -10.23057
 Alpha  occ. eigenvalues --  -10.23056 -10.23055 -10.23054 -10.23054 -10.23053
 Alpha  occ. eigenvalues --   -0.96803  -0.94832  -0.94831  -0.94829  -0.91050
 Alpha  occ. eigenvalues --   -0.91050  -0.91050  -0.91049  -0.91047  -0.87067
 Alpha  occ. eigenvalues --   -0.87066  -0.87065  -0.83896  -0.83895  -0.83894
 Alpha  occ. eigenvalues --   -0.83893  -0.78850  -0.78849  -0.78849  -0.78848
 Alpha  occ. eigenvalues --   -0.78848  -0.77177  -0.77177  -0.77175  -0.77175
 Alpha  occ. eigenvalues --   -0.71569  -0.71569  -0.71567  -0.71566  -0.71563
 Alpha  occ. eigenvalues --   -0.70143  -0.70143  -0.70142  -0.65861  -0.65860
 Alpha  occ. eigenvalues --   -0.65858  -0.62240  -0.62239  -0.62237  -0.62236
 Alpha  occ. eigenvalues --   -0.62233  -0.61934  -0.61933  -0.61930  -0.59340
 Alpha  occ. eigenvalues --   -0.55222  -0.55222  -0.55222  -0.55221  -0.52882
 Alpha  occ. eigenvalues --   -0.52881  -0.52881  -0.52880  -0.52878  -0.51239
 Alpha  occ. eigenvalues --   -0.51238  -0.51235  -0.48704  -0.48704  -0.48703
 Alpha  occ. eigenvalues --   -0.47917  -0.46186  -0.46185  -0.46184  -0.46184
 Alpha  occ. eigenvalues --   -0.45597  -0.45596  -0.45593  -0.44267  -0.44267
 Alpha  occ. eigenvalues --   -0.44267  -0.44263  -0.44262  -0.42962  -0.42961
 Alpha  occ. eigenvalues --   -0.42960  -0.42959  -0.41809  -0.41808  -0.41808
 Alpha  occ. eigenvalues --   -0.41140  -0.41139  -0.41138  -0.41138  -0.41136
 Alpha  occ. eigenvalues --   -0.39937  -0.39934  -0.39934  -0.39931  -0.35762
 Alpha  occ. eigenvalues --   -0.35762  -0.35760  -0.35759  -0.35758  -0.35687
 Alpha  occ. eigenvalues --   -0.35685  -0.35685  -0.34623  -0.34622  -0.34621
 Alpha  occ. eigenvalues --   -0.34620  -0.34619  -0.33746  -0.33745  -0.33744
 Alpha  occ. eigenvalues --   -0.33744  -0.26998  -0.26997  -0.26996  -0.26994
 Alpha  occ. eigenvalues --   -0.26993  -0.26873  -0.26873  -0.26872  -0.26871
 Alpha  occ. eigenvalues --   -0.22008  -0.22006  -0.22006  -0.22003  -0.22000
 Alpha virt. eigenvalues --   -0.11851  -0.11846  -0.11845  -0.07516  -0.07516
 Alpha virt. eigenvalues --   -0.07508  -0.03535  -0.03533  -0.03526  -0.03094
 Alpha virt. eigenvalues --   -0.03094  -0.03092  -0.03089  -0.03083   0.02927
 Alpha virt. eigenvalues --    0.02934   0.02934   0.02941   0.02947   0.04830
 Alpha virt. eigenvalues --    0.04834   0.04841   0.04849   0.07358   0.07361
 Alpha virt. eigenvalues --    0.07365   0.07367   0.09381   0.09382   0.09391
 Alpha virt. eigenvalues --    0.13197   0.13200   0.13203   0.15862   0.15863
 Alpha virt. eigenvalues --    0.15867   0.15867   0.15871   0.18650   0.18654
 Alpha virt. eigenvalues --    0.18661   0.19461   0.19465   0.19470   0.20067
 Alpha virt. eigenvalues --    0.20069   0.20071   0.20071   0.23681   0.23687
 Alpha virt. eigenvalues --    0.23689   0.23692   0.23697   0.25791   0.25792
 Alpha virt. eigenvalues --    0.25793   0.25796   0.28924   0.28926   0.28930
 Alpha virt. eigenvalues --    0.28935   0.28936   0.31364   0.31366   0.31371
 Alpha virt. eigenvalues --    0.33060   0.33066   0.33068   0.36072   0.36080
 Alpha virt. eigenvalues --    0.36085   0.38554   0.38559   0.38562   0.38564
 Alpha virt. eigenvalues --    0.38570   0.44126   0.44128   0.44136   0.44209
 Alpha virt. eigenvalues --    0.45896   0.46574   0.46578   0.46579   0.46579
 Alpha virt. eigenvalues --    0.46583   0.46583   0.46585   0.46591   0.46844
 Alpha virt. eigenvalues --    0.46849   0.46850   0.46856   0.46856   0.47718
 Alpha virt. eigenvalues --    0.47719   0.47731   0.50222   0.50235   0.50244
 Alpha virt. eigenvalues --    0.50499   0.50499   0.50501   0.50502   0.50505
 Alpha virt. eigenvalues --    0.50665   0.50669   0.50678   0.52640   0.52640
 Alpha virt. eigenvalues --    0.52641   0.52643   0.52831   0.52833   0.52836
 Alpha virt. eigenvalues --    0.52837   0.53666   0.53666   0.53671   0.53855
 Alpha virt. eigenvalues --    0.53859   0.53860   0.53862   0.53868   0.55001
 Alpha virt. eigenvalues --    0.55265   0.55266   0.55268   0.55272   0.55277
 Alpha virt. eigenvalues --    0.55277   0.55279   0.55280   0.55282   0.55779
 Alpha virt. eigenvalues --    0.55780   0.55783   0.56307   0.56311   0.56321
 Alpha virt. eigenvalues --    0.56322   0.56326   0.57124   0.57127   0.57128
 Alpha virt. eigenvalues --    0.57629   0.57629   0.57639   0.57643   0.57644
 Alpha virt. eigenvalues --    0.62118   0.62118   0.62119   0.62119   0.62121
 Alpha virt. eigenvalues --    0.62377   0.62377   0.62379   0.62379   0.62380
 Alpha virt. eigenvalues --    0.63450   0.63454   0.63454   0.64313   0.64318
 Alpha virt. eigenvalues --    0.64321   0.64326   0.64911   0.64911   0.64913
 Alpha virt. eigenvalues --    0.64915   0.65079   0.65085   0.65089   0.65770
 Alpha virt. eigenvalues --    0.65770   0.65774   0.65776   0.65850   0.65852
 Alpha virt. eigenvalues --    0.65853   0.65854   0.65855   0.67824   0.67825
 Alpha virt. eigenvalues --    0.67831   0.67916   0.67917   0.67920   0.69300
 Alpha virt. eigenvalues --    0.69308   0.69314   0.69496   0.69500   0.69504
 Alpha virt. eigenvalues --    0.69506   0.69778   0.70235   0.70242   0.70242
 Alpha virt. eigenvalues --    0.70248   0.71555   0.71557   0.71566   0.74853
 Alpha virt. eigenvalues --    0.74858   0.74862   0.74866   0.74874   0.75087
 Alpha virt. eigenvalues --    0.75100   0.75108   0.77041   0.77043   0.77043
 Alpha virt. eigenvalues --    0.77048   0.78290   0.78296   0.78304   0.78306
 Alpha virt. eigenvalues --    0.78314   0.80655   0.80656   0.80657   0.80659
 Alpha virt. eigenvalues --    0.80664   0.80864   0.80867   0.80868   0.80873
 Alpha virt. eigenvalues --    0.81226   0.81230   0.81233   0.81234   0.81238
 Alpha virt. eigenvalues --    0.82961   0.82962   0.82973   0.86112   0.86128
 Alpha virt. eigenvalues --    0.86131   0.89845   0.89851   0.89857   0.89858
 Alpha virt. eigenvalues --    0.91367   0.91371   0.91378   0.91380   0.91383
 Alpha virt. eigenvalues --    0.93564   0.93567   0.93571   0.99766   0.99771
 Alpha virt. eigenvalues --    0.99774   1.00200   1.00218   1.00221   1.00485
 Alpha virt. eigenvalues --    1.00489   1.00497   1.02350   1.02361   1.02363
 Alpha virt. eigenvalues --    1.02367   1.03273   1.03280   1.03285   1.03289
 Alpha virt. eigenvalues --    1.03298   1.04416   1.04536   1.04538   1.04538
 Alpha virt. eigenvalues --    1.04542   1.04546   1.06176   1.06182   1.06187
 Alpha virt. eigenvalues --    1.06192   1.07130   1.07131   1.07132   1.07135
 Alpha virt. eigenvalues --    1.07139   1.12852   1.12853   1.12853   1.13150
 Alpha virt. eigenvalues --    1.13154   1.13158   1.13614   1.13616   1.13620
 Alpha virt. eigenvalues --    1.13620   1.13627   1.14113   1.14117   1.14118
 Alpha virt. eigenvalues --    1.14123   1.15586   1.15592   1.15629   1.16267
 Alpha virt. eigenvalues --    1.16267   1.16271   1.18559   1.18566   1.18575
 Alpha virt. eigenvalues --    1.18576   1.23578   1.23580   1.23584   1.23587
 Alpha virt. eigenvalues --    1.23594   1.23731   1.23735   1.23735   1.23739
 Alpha virt. eigenvalues --    1.25113   1.25114   1.25118   1.25122   1.25123
 Alpha virt. eigenvalues --    1.29652   1.29659   1.29659   1.29673   1.29684
 Alpha virt. eigenvalues --    1.34872   1.34879   1.34881   1.34898   1.34902
 Alpha virt. eigenvalues --    1.36813   1.36819   1.36822   1.38001   1.38004
 Alpha virt. eigenvalues --    1.38008   1.43832   1.43839   1.43854   1.44056
 Alpha virt. eigenvalues --    1.44062   1.44068   1.44070   1.44946   1.44951
 Alpha virt. eigenvalues --    1.44953   1.44958   1.44963   1.49904   1.49920
 Alpha virt. eigenvalues --    1.49926   1.51537   1.51537   1.51556   1.52280
 Alpha virt. eigenvalues --    1.52391   1.52457   1.52460   1.52465   1.52470
 Alpha virt. eigenvalues --    1.55475   1.55480   1.55485   1.55493   1.55498
 Alpha virt. eigenvalues --    1.61255   1.61255   1.61270   1.64441   1.64443
 Alpha virt. eigenvalues --    1.64446   1.64986   1.65000   1.65004   1.65010
 Alpha virt. eigenvalues --    1.67600   1.67603   1.67604   1.69127   1.69539
 Alpha virt. eigenvalues --    1.69543   1.69544   1.69547   1.69618   1.69620
 Alpha virt. eigenvalues --    1.69627   1.69628   1.69631   1.71884   1.71887
 Alpha virt. eigenvalues --    1.71889   1.72078   1.72080   1.72089   1.72090
 Alpha virt. eigenvalues --    1.73406   1.73408   1.73410   1.73420   1.73421
 Alpha virt. eigenvalues --    1.74923   1.74929   1.74931   1.74939   1.74941
 Alpha virt. eigenvalues --    1.78836   1.78839   1.78847   1.78855   1.78857
 Alpha virt. eigenvalues --    1.78971   1.78976   1.78977   1.78981   1.81435
 Alpha virt. eigenvalues --    1.81438   1.81444   1.85721   1.85728   1.85730
 Alpha virt. eigenvalues --    1.85741   1.88182   1.88184   1.88195   1.88197
 Alpha virt. eigenvalues --    1.88202   1.91144   1.91165   1.91165   1.93674
 Alpha virt. eigenvalues --    1.93675   1.93693   1.95342   1.95360   1.95363
 Alpha virt. eigenvalues --    1.96493   1.96497   1.96511   1.96515   1.96521
 Alpha virt. eigenvalues --    1.97733   1.97740   1.97749   1.97756   1.97767
 Alpha virt. eigenvalues --    1.98256   1.98264   1.98282   1.98290   1.98541
 Alpha virt. eigenvalues --    1.98546   1.98549   1.98785   1.98786   1.98790
 Alpha virt. eigenvalues --    1.98796   2.00242   2.00269   2.00288   2.01693
 Alpha virt. eigenvalues --    2.01694   2.01694   2.01697   2.02424   2.02432
 Alpha virt. eigenvalues --    2.02435   2.02443   2.02447   2.06628   2.06635
 Alpha virt. eigenvalues --    2.06653   2.06758   2.06765   2.06780   2.06781
 Alpha virt. eigenvalues --    2.06792   2.11977   2.11982   2.11995   2.16068
 Alpha virt. eigenvalues --    2.16081   2.16082   2.16097   2.16107   2.20868
 Alpha virt. eigenvalues --    2.20870   2.20875   2.20877   2.20881   2.20944
 Alpha virt. eigenvalues --    2.20954   2.20961   2.25374   2.25382   2.25386
 Alpha virt. eigenvalues --    2.25401   2.25408   2.28405   2.28406   2.28413
 Alpha virt. eigenvalues --    2.28414   2.28911   2.28911   2.28915   2.28919
 Alpha virt. eigenvalues --    2.29862   2.29867   2.29888   2.30503   2.30510
 Alpha virt. eigenvalues --    2.30512   2.30519   2.30535   2.35563   2.35569
 Alpha virt. eigenvalues --    2.35572   2.35577   2.35590   2.42286   2.42310
 Alpha virt. eigenvalues --    2.42311   2.43165   2.43175   2.43177   2.43180
 Alpha virt. eigenvalues --    2.43878   2.43886   2.43886   2.43904   2.44515
 Alpha virt. eigenvalues --    2.44518   2.44533   2.47270   2.47285   2.47301
 Alpha virt. eigenvalues --    2.47596   2.47599   2.47603   2.47619   2.47620
 Alpha virt. eigenvalues --    2.51595   2.51595   2.51611   2.54491   2.54506
 Alpha virt. eigenvalues --    2.54520   2.58308   2.58310   2.58318   2.58325
 Alpha virt. eigenvalues --    2.58331   2.58593   2.58596   2.58601   2.58602
 Alpha virt. eigenvalues --    2.58606   2.61095   2.61104   2.61120   2.62037
 Alpha virt. eigenvalues --    2.62045   2.62052   2.62054   2.62063   2.63358
 Alpha virt. eigenvalues --    2.63364   2.63370   2.65697   2.65709   2.65714
 Alpha virt. eigenvalues --    2.65721   2.65732   2.69749   2.69756   2.69758
 Alpha virt. eigenvalues --    2.69761   2.70866   2.70874   2.70875   2.70880
 Alpha virt. eigenvalues --    2.72610   2.72612   2.72618   2.74522   2.74527
 Alpha virt. eigenvalues --    2.74536   2.74545   2.79605   2.79608   2.79618
 Alpha virt. eigenvalues --    2.79624   2.79638   2.82021   2.82023   2.82039
 Alpha virt. eigenvalues --    2.83211   2.83219   2.83221   2.83234   2.83236
 Alpha virt. eigenvalues --    2.84352   2.84360   2.84369   2.85480   2.85480
 Alpha virt. eigenvalues --    2.85487   2.85493   2.85505   2.87525   2.87530
 Alpha virt. eigenvalues --    2.87531   2.90727   2.90736   2.90739   2.90740
 Alpha virt. eigenvalues --    2.94004   2.95498   2.95510   2.95512   2.95519
 Alpha virt. eigenvalues --    2.95527   2.99455   2.99465   2.99466   2.99484
 Alpha virt. eigenvalues --    3.00438   3.00451   3.00453   3.08246   3.08250
 Alpha virt. eigenvalues --    3.08267   3.08287   3.11203   3.11207   3.11214
 Alpha virt. eigenvalues --    3.11223   3.20415   3.20426   3.20453   3.26253
 Alpha virt. eigenvalues --    3.26265   3.26276   3.26285   3.26285   3.38436
 Alpha virt. eigenvalues --    3.38443   3.38445   3.38454   3.47310   3.47323
 Alpha virt. eigenvalues --    3.47333   3.52848   3.52857   3.52864   3.61993
 Alpha virt. eigenvalues --    4.02274   4.03330   4.03338   4.03342   4.05540
 Alpha virt. eigenvalues --    4.05542   4.05546   4.05551   4.05552   4.10281
 Alpha virt. eigenvalues --    4.10284   4.10288   4.13271   4.13274   4.13292
 Alpha virt. eigenvalues --    4.13304   4.19853   4.19854   4.19859   4.19862
 Alpha virt. eigenvalues --    4.19864   4.24940   4.24950   4.24951   4.24957
 Alpha virt. eigenvalues --    4.33448   4.33452   4.33458   4.38053   4.38055
 Alpha virt. eigenvalues --    4.38059   4.38063   4.38072   4.49905   4.49908
 Alpha virt. eigenvalues --    4.49918   4.57177   4.57179   4.57194   4.65141
 Alpha virt. eigenvalues --    4.65148   4.65148   4.65157   4.65158   4.81481
 Alpha virt. eigenvalues --    4.81499   4.81503   4.81510   4.91329   4.91336
 Alpha virt. eigenvalues --    4.91344   4.91360   4.91372   5.12027   5.12028
 Alpha virt. eigenvalues --    5.12045   5.12065   5.27070   5.27071   5.27101
          Condensed to atoms (all electrons):
 Mulliken atomic charges:
              1
     1  C    0.000115
     2  C   -0.000061
     3  C    0.000171
     4  C    0.000374
     5  C   -0.000239
     6  C    0.000026
     7  C   -0.000458
     8  C    0.000119
     9  C   -0.000060
    10  C    0.000171
    11  C   -0.000102
    12  C   -0.000102
    13  C   -0.000367
    14  C    0.000243
    15  C    0.000236
    16  C   -0.000371
    17  C   -0.000029
    18  C    0.000140
    19  C    0.000147
    20  C    0.000020
    21  C   -0.000029
    22  C    0.000136
    23  C   -0.000099
    24  C   -0.000093
    25  C    0.000085
    26  C   -0.000100
    27  C    0.000373
    28  C   -0.000240
    29  C    0.000090
    30  C   -0.000458
    31  C    0.000147
    32  C    0.000140
    33  C   -0.000029
    34  C    0.000026
    35  C   -0.000061
    36  C   -0.000060
    37  C    0.000119
    38  C    0.000020
    39  C   -0.000029
    40  C    0.000136
    41  C   -0.000093
    42  C    0.000085
    43  C   -0.000100
    44  C   -0.000371
    45  C    0.000236
    46  C   -0.000239
    47  C    0.000374
    48  C    0.000171
    49  C    0.000171
    50  C   -0.000098
    51  C   -0.000102
    52  C    0.000090
    53  C   -0.000102
    54  C   -0.000367
    55  C    0.000243
    56  C   -0.000240
    57  C    0.000373
    58  C   -0.000099
    59  C   -0.000098
    60  C    0.000115
 Sum of Mulliken atomic charges =   0.00000
 Mulliken charges with hydrogens summed into heavy atoms:
              1
     1  C    0.000115
     2  C   -0.000061
     3  C    0.000171
     4  C    0.000374
     5  C   -0.000239
     6  C    0.000026
     7  C   -0.000458
     8  C    0.000119
     9  C   -0.000060
    10  C    0.000171
    11  C   -0.000102
    12  C   -0.000102
    13  C   -0.000367
    14  C    0.000243
    15  C    0.000236
    16  C   -0.000371
    17  C   -0.000029
    18  C    0.000140
    19  C    0.000147
    20  C    0.000020
    21  C   -0.000029
    22  C    0.000136
    23  C   -0.000099
    24  C   -0.000093
    25  C    0.000085
    26  C   -0.000100
    27  C    0.000373
    28  C   -0.000240
    29  C    0.000090
    30  C   -0.000458
    31  C    0.000147
    32  C    0.000140
    33  C   -0.000029
    34  C    0.000026
    35  C   -0.000061
    36  C   -0.000060
    37  C    0.000119
    38  C    0.000020
    39  C   -0.000029
    40  C    0.000136
    41  C   -0.000093
    42  C    0.000085
    43  C   -0.000100
    44  C   -0.000371
    45  C    0.000236
    46  C   -0.000239
    47  C    0.000374
    48  C    0.000171
    49  C    0.000171
    50  C   -0.000098
    51  C   -0.000102
    52  C    0.000090
    53  C   -0.000102
    54  C   -0.000367
    55  C    0.000243
    56  C   -0.000240
    57  C    0.000373
    58  C   -0.000099
    59  C   -0.000098
    60  C    0.000115
 Sum of Mulliken charges with hydrogens summed into heavy atoms =   0.00000
 Electronic spatial extent (au):  <R**2>=          16922.3833
 Charge=              0.0000 electrons
 Dipole moment (field-independent basis, Debye):
    X=              0.0000    Y=              0.0000    Z=              0.0000  Tot=              0.0000
 Quadrupole moment (field-independent basis, Debye-Ang):
   XX=           -324.1102   YY=           -324.1003   ZZ=           -324.1181
   XY=              0.0000   XZ=              0.0000   YZ=              0.0004
 Traceless Quadrupole moment (field-independent basis, Debye-Ang):
   XX=             -0.0007   YY=              0.0092   ZZ=             -0.0085
   XY=              0.0000   XZ=              0.0000   YZ=              0.0004
 Octapole moment (field-independent basis, Debye-Ang**2):
  XXX=              0.0000  YYY=              0.0000  ZZZ=              0.0000  XYY=              0.0000
  XXY=              0.0000  XXZ=              0.0000  XZZ=              0.0000  YZZ=              0.0000
  YYZ=              0.0000  XYZ=              0.0000
 Hexadecapole moment (field-independent basis, Debye-Ang**3):
 XXXX=          -8514.7921 YYYY=          -8515.0460 ZZZZ=          -8516.1350 XXXY=             -0.0013
 XXXZ=              0.0012 YYYX=              0.0010 YYYZ=              0.6549 ZZZX=              0.0002
 ZZZY=              0.6669 XXYY=          -2838.3072 XXZZ=          -2838.4690 YYZZ=          -2838.5060
 XXYZ=              0.2265 YYXZ=             -0.0003 ZZXY=              0.0005
 N-N= 8.327208234521D+03 E-N=-2.194554733459D+04  KE= 2.264969018119D+03
 Symmetry AG   KE= 1.132230484206D+03
 Symmetry AU   KE= 1.132738533912D+03
 No NMR shielding tensors so no spin-rotation constants.
 Leave Link  601 at Fri Mar 18 21:12:09 2011, MaxMem= 1441792000 cpu:      39.9
 (Enter /apps/gaussian/g09/g09/l9999.exe)
 1\1\GINC-CX1-25-7-1\SP\RB3LYP\6-31G(d)\C60\SPF310\18-Mar-2011\0\\#p sp
  guess=read b3lyp/6-31g* geom=AllCheckpoint\\Title Card Required\\0,1\
 C,0,-1.1759079398,-0.3822888879,3.3279753383\C,0,-0.7267224648,1.00006
 76775,3.3277350693\C,0,-1.4242402121,1.9601050071,2.5936479769\C,0,-2.
 5996733894,1.5779740034,1.8292923197\C,0,-3.0311590103,0.2511907959,1.
 8296689643\C,0,-2.3047561064,-0.7489972727,2.5942253036\C,0,-0.0000015
 947,-1.2366911895,3.3281928195\C,0,1.1759052013,-0.3822862051,3.327966
 2008\C,0,0.7267215017,1.0000686496,3.3277368403\C,0,1.424238995,1.9601
 055254,2.5936451307\C,0,-0.6975990447,2.9605245678,1.8297110605\C,0,-2
 .6001748648,2.3426449719,0.5932973346\C,0,-3.031938478,1.7494684288,-0
 .5936359178\C,0,-3.4802204775,0.3668162533,-0.5933271537\C,0,-3.480238
 5036,-0.3668203583,0.5933311931\C,0,-3.0319318078,-1.7494703865,0.5936
 39395\C,0,-2.3047270264,-1.9851697362,1.8298565531\C,0,-1.1758700637,-
 2.805117316,1.829865176\C,0,0.0000002012,-2.4234316224,2.5942045021\C,
 0,2.3047593885,-0.7490053951,2.5942347257\C,0,2.3047208908,-1.98516798
 1,1.8298535548\C,0,1.1758788583,-2.8051270716,1.8298731976\C,0,0.72677
 36015,-3.4237382579,0.593659348\C,0,-0.7267715956,-3.423738139,0.59366
 23587\C,0,-1.4242608005,-3.196906117,-0.5932589271\C,0,-2.6001835479,-
 2.3426521396,-0.593295515\C,0,-2.5996721524,-1.577970299,-1.8292854383
 \C,0,-3.0311617717,-0.2511911109,-1.8296685229\C,0,-1.4242608303,3.196
 9122808,0.5932634045\C,0,0.0000021017,1.2366913535,-3.3281899728\C,0,0
 .0000003058,2.4234317864,-2.5942016554\C,0,1.1758705707,2.80511748,-1.
 8298623293\C,0,2.3047275334,1.9851699002,-1.8298537064\C,0,2.304756613
 4,0.7489974367,-2.594222457\C,0,0.7267229718,-1.0000675135,-3.32773222
 26\C,0,-0.7267209947,-1.0000684856,-3.3277339936\C,0,-1.1759046943,0.3
 822863691,-3.3279633541\C,0,-2.3047588815,0.7490055591,-2.5942318791\C
 ,0,-2.3047203838,1.985168145,-1.8298507082\C,0,-1.1758783513,2.8051272
 356,-1.8298703509\C,0,0.7267721026,3.423738303,-0.593659512\C,0,1.4242
 613075,3.196906281,0.5932617737\C,0,2.6001840549,2.3426523036,0.593298
 3617\C,0,3.0319323148,1.7494705505,-0.5936365484\C,0,3.4802390106,0.36
 68205223,-0.5933283464\C,0,3.0311595173,-0.2511906319,-1.8296661176\C,
 0,2.5996738964,-1.5779738394,-1.829289473\C,0,1.4242407191,-1.96010484
 31,-2.5936451302\C,0,-1.424238488,-1.9601053614,-2.593642284\C,0,-0.69
 75993647,-2.9605221634,-1.8297085065\C,0,0.6975995517,-2.9605244038,-1
 .8297082138\C,0,1.4242613373,-3.1969121168,-0.5932605579\C,0,2.6001753
 718,-2.3426448079,-0.5932944879\C,0,3.031938985,-1.7494682648,0.593638
 7645\C,0,3.4802209845,-0.3668160893,0.5933300004\C,0,3.0311622787,0.25
 11912749,1.8296713696\C,0,2.5996726594,1.577970463,1.829288285\C,0,-0.
 7267730945,3.4237384219,-0.5936565013\C,0,0.6975998717,2.9605223274,1.
 8297113532\C,0,1.1759084468,0.3822890519,-3.3279724917\\Version=EM64L-
 G09RevA.02\State=1-AG\HF=-2286.1739332\RMSD=6.553e-09\Dipole=0.,0.,0.\
 Quadrupole=-0.0005075,0.0068493,-0.0063418,0.0000023,-0.0000094,0.0003
 303\PG=CI [X(C60)]\\@


 Where a calculator on the ENIAC is equipped with 18,000
 vacuum tubes and weighs 30 tons, computers inthe future
 may  have only 1,000 vacuum tubes and weigh only 1 1/2 tons.
              ---Popular Mechanics, March 1949
 Job cpu time:  0 days  0 hours 15 minutes 51.5 seconds.
 File lengths (MBytes):  RWF=    425 Int=      0 D2E=      0 Chk=     51 Scr=      1
 Normal termination of Gaussian 09 at Fri Mar 18 21:12:09 2011.
