 Entering Gaussian System, Link 0=g03
 Input=Chelpg_P3HT_12_cation_B3LYP_631GSTAR.com
 Output=Chelpg_P3HT_12_cation_B3LYP_631GSTAR.log
 Initial command:
 /apps/gaussian/g09/g09/l1.exe /tmp/pbs.5931640.cx1/Gau-7539.inp -scrdir=/tmp/pbs.5931640.cx1/
 Entering Link 1 = /apps/gaussian/g09/g09/l1.exe PID=      7547.
  
 Copyright (c) 1988,1990,1992,1993,1995,1998,2003,2009, Gaussian, Inc.
                  All Rights Reserved.
  
 This is part of the Gaussian(R) 09 program.  It is based on
 the Gaussian(R) 03 system (copyright 2003, Gaussian, Inc.),
 the Gaussian(R) 98 system (copyright 1998, Gaussian, Inc.),
 the Gaussian(R) 94 system (copyright 1995, Gaussian, Inc.),
 the Gaussian 92(TM) system (copyright 1992, Gaussian, Inc.),
 the Gaussian 90(TM) system (copyright 1990, Gaussian, Inc.),
 the Gaussian 88(TM) system (copyright 1988, Gaussian, Inc.),
 the Gaussian 86(TM) system (copyright 1986, Carnegie Mellon
 University), and the Gaussian 82(TM) system (copyright 1983,
 Carnegie Mellon University). Gaussian is a federally registered
 trademark of Gaussian, Inc.
  
 This software contains proprietary and confidential information,
 including trade secrets, belonging to Gaussian, Inc.
  
 This software is provided under written license and may be
 used, copied, transmitted, or stored only in accord with that
 written license.
  
 The following legend is applicable only to US Government
 contracts under FAR:
  
                    RESTRICTED RIGHTS LEGEND
  
 Use, reproduction and disclosure by the US Government is
 subject to restrictions as set forth in subparagraphs (a)
 and (c) of the Commercial Computer Software - Restricted
 Rights clause in FAR 52.227-19.
  
 Gaussian, Inc.
 340 Quinnipiac St., Bldg. 40, Wallingford CT 06492
  
  
 ---------------------------------------------------------------
 Warning -- This program may not be used in any manner that
 competes with the business of Gaussian, Inc. or will provide
 assistance to any competitor of Gaussian, Inc.  The licensee
 of this program is prohibited from giving any competitor of
 Gaussian, Inc. access to this program.  By using this program,
 the user acknowledges that Gaussian, Inc. is engaged in the
 business of creating and licensing software in the field of
 computational chemistry and represents and warrants to the
 licensee that it is not a competitor of Gaussian, Inc. and that
 it will not use this program in any manner prohibited above.
 ---------------------------------------------------------------
  

 Cite this work as:
 Gaussian 09, Revision A.02,
 M. J. Frisch, G. W. Trucks, H. B. Schlegel, G. E. Scuseria, 
 M. A. Robb, J. R. Cheeseman, G. Scalmani, V. Barone, B. Mennucci, 
 G. A. Petersson, H. Nakatsuji, M. Caricato, X. Li, H. P. Hratchian, 
 A. F. Izmaylov, J. Bloino, G. Zheng, J. L. Sonnenberg, M. Hada, 
 M. Ehara, K. Toyota, R. Fukuda, J. Hasegawa, M. Ishida, T. Nakajima, 
 Y. Honda, O. Kitao, H. Nakai, T. Vreven, J. A. Montgomery, Jr., 
 J. E. Peralta, F. Ogliaro, M. Bearpark, J. J. Heyd, E. Brothers, 
 K. N. Kudin, V. N. Staroverov, R. Kobayashi, J. Normand, 
 K. Raghavachari, A. Rendell, J. C. Burant, S. S. Iyengar, J. Tomasi, 
 M. Cossi, N. Rega, J. M. Millam, M. Klene, J. E. Knox, J. B. Cross, 
 V. Bakken, C. Adamo, J. Jaramillo, R. Gomperts, R. E. Stratmann, 
 O. Yazyev, A. J. Austin, R. Cammi, C. Pomelli, J. W. Ochterski, 
 R. L. Martin, K. Morokuma, V. G. Zakrzewski, G. A. Voth, 
 P. Salvador, J. J. Dannenberg, S. Dapprich, A. D. Daniels, 
 O. Farkas, J. B. Foresman, J. V. Ortiz, J. Cioslowski, 
 and D. J. Fox, Gaussian, Inc., Wallingford CT, 2009.
 
 ******************************************
 Gaussian 09:  EM64L-G09RevA.02 11-Jun-2009
                24-Jul-2011 
 ******************************************
 %chk=Chelpg_P3HT_12_cation_B3LYP_631GSTAR.chk
 %mem=11000MB
 %nprocshared=8
 Will use up to    8 processors via shared memory.
 ------------------------------------------------------
 #p sp B3LYP/6-31g* geom=allcheck guess=read pop=chelpg
 ------------------------------------------------------
 1/29=7,38=1/1;
 2/12=2,40=1/2;
 3/5=1,6=6,7=1,11=2,14=-4,16=1,25=1,30=1,74=-5,116=-2/1,2,3;
 4/5=1/1;
 5/5=2,38=6/2;
 6/7=2,8=2,9=2,10=2,15=8,20=3,28=1/1,2;
 99/5=1,9=1/99;
 Leave Link    1 at Sun Jul 24 23:26:55 2011, MaxMem= 1441792000 cpu:       0.3
 (Enter /apps/gaussian/g09/g09/l101.exe)
 -------------------
 Title Card Required
 -------------------
 Redundant internal coordinates taken from checkpoint file:
 Chelpg_P3HT_12_cation_B3LYP_631GSTAR.chk
 Charge =  1 Multiplicity = 2
 C,0,3.2195994253,0.1838018852,-0.0051905828
 C,0,2.6532340473,1.458007668,-0.0052158679
 C,0,1.2538957812,1.4568436813,-0.0052725125
 C,0,0.6894055558,0.1820576114,-0.0052912019
 S,0,1.9556053867,-1.0391832368,-0.005354304
 H,0,3.248797594,2.3644717074,-0.0051507054
 H,0,0.6571514103,2.3626083383,-0.0052563535
 C,0,4.5992060497,-0.1779099678,-0.0050804232
 C,0,5.1665952142,-1.4508710766,-0.0049889738
 S,0,5.8629623435,1.0463833995,-0.0050401597
 C,0,6.566281224,-1.4489786349,-0.0048815867
 H,0,4.5721460863,-2.358221638,-0.0049895444
 C,0,7.1294264207,-0.1734185634,-0.0048901745
 H,0,7.1641234016,-2.3538684818,-0.0047920297
 C,0,8.5086475304,0.1920927468,-0.0047949473
 C,0,9.0729855064,1.4653662745,-0.0047369659
 S,0,9.7755724702,-1.0295255759,-0.0047174023
 C,0,10.4735240499,1.4666019367,-0.0046511175
 H,0,8.4769149476,2.3717397648,-0.0047565172
 C,0,11.0388053589,0.1926791141,-0.0046412672
 H,0,11.0695922023,2.3725784944,-0.004599156
 C,0,12.4203228454,-0.170334712,-0.0045688298
 C,0,12.9888817998,-1.4397441751,-0.0045103385
 S,0,13.6828593175,1.0560754713,-0.00449146
 C,0,14.3914597659,-1.4351907874,-0.0045134497
 H,0,12.3969516597,-2.3489198255,-0.0045084054
 C,0,14.9500601312,-0.1603184673,-0.0045675571
 H,0,14.9913164712,-2.338607926,-0.0045151928
 C,0,16.3327356956,0.2120565492,-0.0046401296
 C,0,16.8934794347,1.4813371439,-0.004683918
 S,0,17.6012819462,-1.0074617463,-0.0047265182
 C,0,18.300052824,1.482125619,-0.0046948794
 H,0,16.2985380713,2.3886189017,-0.0046688251
 C,0,18.861041373,0.2131789953,-0.0046589778
 H,0,18.8960764709,2.3880820614,-0.0046890357
 C,0,20.253290584,-0.1580153878,-0.0046053308
 C,0,20.8160812585,-1.4213976178,-0.0045587043
 S,0,21.5151635638,1.0659987326,-0.0045840296
 C,0,22.2350020945,-1.4097969519,-0.0045246527
 H,0,20.2255657262,-2.3316454774,-0.0045555698
 C,0,22.7548496471,-0.1417563237,-0.0045499798
 H,0,22.8458549666,-2.3053768035,-0.0044935412
 H,0,23.7946045673,0.1567248054,-0.004542173
 C,0,-0.6894055241,-0.1820576131,-0.0052912142
 C,0,-1.2538957513,-1.4568436829,-0.0052731471
 S,0,-1.9556053547,1.0391832366,-0.0053534705
 C,0,-2.6532340192,-1.4580076685,-0.0052163733
 H,0,-0.6571513817,-2.3626083409,-0.0052575496
 C,0,-3.2195993965,-0.1838018833,-0.0051903627
 H,0,-3.2487975685,-2.3644717079,-0.0051516623
 C,0,-4.5992060231,0.1779099742,-0.0050799237
 C,0,-5.1665951903,1.4508710851,-0.0049877326
 S,0,-5.8629623192,-1.046383394,-0.0050402557
 C,0,-6.566281205,1.4489786423,-0.0048802656
 H,0,-4.5721460629,2.3582216488,-0.0049878332
 C,0,-7.1294264021,0.1734185664,-0.0048895331
 H,0,-7.1641233859,2.3538684902,-0.0047901716
 C,0,-8.5086475156,-0.1920927528,-0.004794429
 C,0,-9.0729854944,-1.4653662847,-0.0047371072
 S,0,-9.7755724603,1.0295255697,-0.0047160932
 C,0,-10.4735240449,-1.4666019464,-0.0046512679
 H,0,-8.4769149343,-2.3717397777,-0.0047571757
 C,0,-11.0388053554,-0.1926791184,-0.0046407635
 H,0,-11.0695922005,-2.372578506,-0.0045998294
 C,0,-12.4203228465,0.1703347189,-0.0045682181
 C,0,-12.9888818029,1.4397441872,-0.0045090332
 S,0,-13.6828593245,-1.056075463,-0.0044916132
 C,0,-14.391459776,1.4351907998,-0.0045122695
 H,0,-12.3969516604,2.3489198401,-0.0045065326
 C,0,-14.9500601436,0.160318475,-0.0045671716
 H,0,-14.991316483,2.3386079412,-0.004513553
 C,0,-16.3327357117,-0.2120565518,-0.0046400991
 C,0,-16.8934794506,-1.4813371517,-0.0046846724
 S,0,-17.6012819689,1.0074617407,-0.0047258615
 C,0,-18.3000528451,-1.4821256288,-0.0046958533
 H,0,-16.2985380832,-2.3886189105,-0.004670035
 C,0,-18.8610413977,-0.2131790028,-0.004659339
 H,0,-18.896076492,-2.3880820741,-0.0046906472
 C,0,-20.2532906112,0.1580153849,-0.0046057669
 C,0,-20.8160812864,1.4213976176,-0.0045584668
 S,0,-21.5151635939,-1.065998735,-0.0045855027
 C,0,-22.2350021249,1.4097969521,-0.0045247344
 H,0,-20.2255657522,2.3316454784,-0.0045546277
 C,0,-22.7548496785,0.1417563224,-0.0045509744
 H,0,-22.8458549974,2.3053768051,-0.0044931918
 H,0,-23.7946045999,-0.1567248075,-0.0045435839
 Recover connectivity data from disk.
                    Isotopes and Nuclear Properties:
 (Nuclear quadrupole moments (NQMom) in fm**2, nuclear magnetic moments (NMagM)
  in nuclear magnetons)

  Atom         1           2           3           4           5           6           7           8           9          10
 IAtWgt=          12          12          12          12          32           1           1          12          12          32
 AtmWgt=  12.0000000  12.0000000  12.0000000  12.0000000  31.9720718   1.0078250   1.0078250  12.0000000  12.0000000  31.9720718
 NucSpn=           0           0           0           0           0           1           1           0           0           0
 AtZEff=  -3.6000000  -3.6000000  -3.6000000  -3.6000000 -13.6000000  -1.0000000  -1.0000000  -3.6000000  -3.6000000 -13.6000000
 NQMom=    0.0000000   0.0000000   0.0000000   0.0000000   0.0000000   0.0000000   0.0000000   0.0000000   0.0000000   0.0000000
 NMagM=    0.0000000   0.0000000   0.0000000   0.0000000   0.0000000   2.7928460   2.7928460   0.0000000   0.0000000   0.0000000

  Atom        11          12          13          14          15          16          17          18          19          20
 IAtWgt=          12           1          12           1          12          12          32          12           1          12
 AtmWgt=  12.0000000   1.0078250  12.0000000   1.0078250  12.0000000  12.0000000  31.9720718  12.0000000   1.0078250  12.0000000
 NucSpn=           0           1           0           1           0           0           0           0           1           0
 AtZEff=  -3.6000000  -1.0000000  -3.6000000  -1.0000000  -3.6000000  -3.6000000 -13.6000000  -3.6000000  -1.0000000  -3.6000000
 NQMom=    0.0000000   0.0000000   0.0000000   0.0000000   0.0000000   0.0000000   0.0000000   0.0000000   0.0000000   0.0000000
 NMagM=    0.0000000   2.7928460   0.0000000   2.7928460   0.0000000   0.0000000   0.0000000   0.0000000   2.7928460   0.0000000

  Atom        21          22          23          24          25          26          27          28          29          30
 IAtWgt=           1          12          12          32          12           1          12           1          12          12
 AtmWgt=   1.0078250  12.0000000  12.0000000  31.9720718  12.0000000   1.0078250  12.0000000   1.0078250  12.0000000  12.0000000
 NucSpn=           1           0           0           0           0           1           0           1           0           0
 AtZEff=  -1.0000000  -3.6000000  -3.6000000 -13.6000000  -3.6000000  -1.0000000  -3.6000000  -1.0000000  -3.6000000  -3.6000000
 NQMom=    0.0000000   0.0000000   0.0000000   0.0000000   0.0000000   0.0000000   0.0000000   0.0000000   0.0000000   0.0000000
 NMagM=    2.7928460   0.0000000   0.0000000   0.0000000   0.0000000   2.7928460   0.0000000   2.7928460   0.0000000   0.0000000

  Atom        31          32          33          34          35          36          37          38          39          40
 IAtWgt=          32          12           1          12           1          12          12          32          12           1
 AtmWgt=  31.9720718  12.0000000   1.0078250  12.0000000   1.0078250  12.0000000  12.0000000  31.9720718  12.0000000   1.0078250
 NucSpn=           0           0           1           0           1           0           0           0           0           1
 AtZEff= -13.6000000  -3.6000000  -1.0000000  -3.6000000  -1.0000000  -3.6000000  -3.6000000 -13.6000000  -3.6000000  -1.0000000
 NQMom=    0.0000000   0.0000000   0.0000000   0.0000000   0.0000000   0.0000000   0.0000000   0.0000000   0.0000000   0.0000000
 NMagM=    0.0000000   0.0000000   2.7928460   0.0000000   2.7928460   0.0000000   0.0000000   0.0000000   0.0000000   2.7928460

  Atom        41          42          43          44          45          46          47          48          49          50
 IAtWgt=          12           1           1          12          12          32          12           1          12           1
 AtmWgt=  12.0000000   1.0078250   1.0078250  12.0000000  12.0000000  31.9720718  12.0000000   1.0078250  12.0000000   1.0078250
 NucSpn=           0           1           1           0           0           0           0           1           0           1
 AtZEff=  -3.6000000  -1.0000000  -1.0000000  -3.6000000  -3.6000000 -13.6000000  -3.6000000  -1.0000000  -3.6000000  -1.0000000
 NQMom=    0.0000000   0.0000000   0.0000000   0.0000000   0.0000000   0.0000000   0.0000000   0.0000000   0.0000000   0.0000000
 NMagM=    0.0000000   2.7928460   2.7928460   0.0000000   0.0000000   0.0000000   0.0000000   2.7928460   0.0000000   2.7928460

  Atom        51          52          53          54          55          56          57          58          59          60
 IAtWgt=          12          12          32          12           1          12           1          12          12          32
 AtmWgt=  12.0000000  12.0000000  31.9720718  12.0000000   1.0078250  12.0000000   1.0078250  12.0000000  12.0000000  31.9720718
 NucSpn=           0           0           0           0           1           0           1           0           0           0
 AtZEff=  -3.6000000  -3.6000000 -13.6000000  -3.6000000  -1.0000000  -3.6000000  -1.0000000  -3.6000000  -3.6000000 -13.6000000
 NQMom=    0.0000000   0.0000000   0.0000000   0.0000000   0.0000000   0.0000000   0.0000000   0.0000000   0.0000000   0.0000000
 NMagM=    0.0000000   0.0000000   0.0000000   0.0000000   2.7928460   0.0000000   2.7928460   0.0000000   0.0000000   0.0000000

  Atom        61          62          63          64          65          66          67          68          69          70
 IAtWgt=          12           1          12           1          12          12          32          12           1          12
 AtmWgt=  12.0000000   1.0078250  12.0000000   1.0078250  12.0000000  12.0000000  31.9720718  12.0000000   1.0078250  12.0000000
 NucSpn=           0           1           0           1           0           0           0           0           1           0
 AtZEff=  -3.6000000  -1.0000000  -3.6000000  -1.0000000  -3.6000000  -3.6000000 -13.6000000  -3.6000000  -1.0000000  -3.6000000
 NQMom=    0.0000000   0.0000000   0.0000000   0.0000000   0.0000000   0.0000000   0.0000000   0.0000000   0.0000000   0.0000000
 NMagM=    0.0000000   2.7928460   0.0000000   2.7928460   0.0000000   0.0000000   0.0000000   0.0000000   2.7928460   0.0000000

  Atom        71          72          73          74          75          76          77          78          79          80
 IAtWgt=           1          12          12          32          12           1          12           1          12          12
 AtmWgt=   1.0078250  12.0000000  12.0000000  31.9720718  12.0000000   1.0078250  12.0000000   1.0078250  12.0000000  12.0000000
 NucSpn=           1           0           0           0           0           1           0           1           0           0
 AtZEff=  -1.0000000  -3.6000000  -3.6000000 -13.6000000  -3.6000000  -1.0000000  -3.6000000  -1.0000000  -3.6000000  -3.6000000
 NQMom=    0.0000000   0.0000000   0.0000000   0.0000000   0.0000000   0.0000000   0.0000000   0.0000000   0.0000000   0.0000000
 NMagM=    2.7928460   0.0000000   0.0000000   0.0000000   0.0000000   2.7928460   0.0000000   2.7928460   0.0000000   0.0000000

  Atom        81          82          83          84          85          86
 IAtWgt=          32          12           1          12           1           1
 AtmWgt=  31.9720718  12.0000000   1.0078250  12.0000000   1.0078250   1.0078250
 NucSpn=           0           0           1           0           1           1
 AtZEff= -13.6000000  -3.6000000  -1.0000000  -3.6000000  -1.0000000  -1.0000000
 NQMom=    0.0000000   0.0000000   0.0000000   0.0000000   0.0000000   0.0000000
 NMagM=    0.0000000   0.0000000   2.7928460   0.0000000   2.7928460   2.7928460
 Leave Link  101 at Sun Jul 24 23:26:55 2011, MaxMem= 1441792000 cpu:       0.9
 (Enter /apps/gaussian/g09/g09/l202.exe)
 Stoichiometry    C48H26S12(1+,2)
 Framework group  C1[X(C48H26S12)]
 Deg. of freedom   252
 Full point group                 C1      NOp   1
 Largest Abelian subgroup         C1      NOp   1
 Largest concise Abelian subgroup C1      NOp   1
                         Standard orientation:                         
 ---------------------------------------------------------------------
 Center     Atomic      Atomic             Coordinates (Angstroms)
 Number     Number       Type             X           Y           Z
 ---------------------------------------------------------------------
      1          6           0        3.219519   -0.185205    0.000399
      2          6           0        2.652599   -1.459164    0.000424
      3          6           0        1.253261   -1.457390    0.000480
      4          6           0        0.689326   -0.182358    0.000499
      5         16           0        1.956058    1.038331    0.000562
      6          1           0        3.247767   -2.365887    0.000359
      7          1           0        0.656122   -2.362894    0.000464
      8          6           0        4.599283    0.175906    0.000288
      9          6           0        5.167227    1.448620    0.000197
     10         16           0        5.862506   -1.048938    0.000248
     11          6           0        6.566912    1.446117    0.000090
     12          1           0        4.573173    2.356229    0.000197
     13          6           0        7.129501    0.170312    0.000098
     14          1           0        7.165148    2.350747    0.000000
     15          6           0        8.508563   -0.195800    0.000003
     16          6           0        9.072346   -1.469319   -0.000055
     17         16           0        9.776020    1.025266   -0.000075
     18          6           0       10.472884   -1.471165   -0.000141
     19          1           0        8.475881   -2.375433   -0.000036
     20          6           0       11.038720   -0.197489   -0.000151
     21          1           0       11.068557   -2.377401   -0.000193
     22          6           0       12.420396    0.164923   -0.000223
     23          6           0       12.989508    1.434085   -0.000282
     24         16           0       13.682398   -1.062037   -0.000301
     25          6           0       14.392084    1.428920   -0.000279
     26          1           0       12.397974    2.343518   -0.000284
     27          6           0       14.950129    0.153804   -0.000225
     28          1           0       14.992334    2.332076   -0.000277
     29          6           0       16.332642   -0.219173   -0.000152
     30          6           0       16.892832   -1.488698   -0.000108
     31         16           0       17.601719    0.999792   -0.000066
     32          6           0       18.299405   -1.490099   -0.000097
     33          1           0       16.297496   -2.395720   -0.000123
     34          6           0       18.860947   -0.221397   -0.000133
     35          1           0       18.895034   -2.396315   -0.000103
     36          6           0       20.253358    0.149191   -0.000187
     37          6           0       20.816699    1.412328   -0.000233
     38         16           0       21.514697   -1.075373   -0.000208
     39          6           0       22.235614    1.400109   -0.000267
     40          1           0       20.226580    2.322833   -0.000236
     41          6           0       22.754909    0.131842   -0.000242
     42          1           0       22.846857    2.295422   -0.000299
     43          1           0       23.794534   -0.167092   -0.000250
     44          6           0       -0.689326    0.182358    0.000499
     45          6           0       -1.253261    1.457390    0.000481
     46         16           0       -1.956058   -1.038331    0.000561
     47          6           0       -2.652598    1.459164    0.000424
     48          1           0       -0.656122    2.362894    0.000465
     49          6           0       -3.219519    0.185205    0.000398
     50          1           0       -3.247767    2.365887    0.000360
     51          6           0       -4.599283   -0.175906    0.000288
     52          6           0       -5.167227   -1.448620    0.000196
     53         16           0       -5.862506    1.048938    0.000248
     54          6           0       -6.566912   -1.446117    0.000088
     55          1           0       -4.573173   -2.356229    0.000196
     56          6           0       -7.129501   -0.170312    0.000097
     57          1           0       -7.165148   -2.350747   -0.000002
     58          6           0       -8.508563    0.195800    0.000002
     59          6           0       -9.072346    1.469319   -0.000055
     60         16           0       -9.776020   -1.025266   -0.000076
     61          6           0      -10.472884    1.471165   -0.000141
     62          1           0       -8.475881    2.375433   -0.000035
     63          6           0      -11.038720    0.197489   -0.000151
     64          1           0      -11.068557    2.377401   -0.000192
     65          6           0      -12.420396   -0.164923   -0.000224
     66          6           0      -12.989508   -1.434085   -0.000283
     67         16           0      -13.682398    1.062037   -0.000300
     68          6           0      -14.392084   -1.428920   -0.000280
     69          1           0      -12.397974   -2.343518   -0.000286
     70          6           0      -14.950129   -0.153804   -0.000225
     71          1           0      -14.992334   -2.332076   -0.000279
     72          6           0      -16.332642    0.219173   -0.000152
     73          6           0      -16.892832    1.488698   -0.000107
     74         16           0      -17.601719   -0.999792   -0.000066
     75          6           0      -18.299405    1.490099   -0.000096
     76          1           0      -16.297496    2.395720   -0.000122
     77          6           0      -18.860947    0.221397   -0.000133
     78          1           0      -18.895034    2.396315   -0.000101
     79          6           0      -20.253358   -0.149191   -0.000186
     80          6           0      -20.816699   -1.412328   -0.000234
     81         16           0      -21.514697    1.075373   -0.000207
     82          6           0      -22.235614   -1.400109   -0.000267
     83          1           0      -20.226580   -2.322833   -0.000237
     84          6           0      -22.754909   -0.131842   -0.000241
     85          1           0      -22.846857   -2.295422   -0.000299
     86          1           0      -23.794534    0.167092   -0.000248
 ---------------------------------------------------------------------
 Rotational constants (GHZ):      0.4332896      0.0027903      0.0027724
 Leave Link  202 at Sun Jul 24 23:26:55 2011, MaxMem= 1441792000 cpu:       0.0
 (Enter /apps/gaussian/g09/g09/l301.exe)
 Standard basis: 6-31G(d) (6D, 7F)
 Ernie: Thresh=  0.10000D-02 Tol=  0.10000D-05 Strict=F.
 There are  1000 symmetry adapted basis functions of A   symmetry.
 Integral buffers will be    131072 words long.
 Raffenetti 2 integral format.
 Two-electron integral symmetry is turned on.
  1000 basis functions,  2072 primitive gaussians,  1000 cartesian basis functions
   253 alpha electrons      252 beta electrons
       nuclear repulsion energy      8262.4272828124 Hartrees.
 IExCor=  402 DFT=T Ex+Corr=B3LYP ExCW=0 ScaHFX=  0.200000
 ScaDFX=  0.800000  0.720000  1.000000  0.810000 ScalE2=  1.000000  1.000000
 IRadAn=      0 IRanWt=     -1 IRanGd=            0 ICorTp=0
 NAtoms=   86 NActive=   86 NUniq=   86 SFac= 7.50D-01 NAtFMM=   80 NAOKFM=T Big=T
 Leave Link  301 at Sun Jul 24 23:26:55 2011, MaxMem= 1441792000 cpu:       0.6
 (Enter /apps/gaussian/g09/g09/l302.exe)
 NPDir=0 NMtPBC=     1 NCelOv=     1 NCel=       1 NClECP=     1 NCelD=      1
         NCelK=      1 NCelE2=     1 NClLst=     1 CellRange=     0.0.
 One-electron integrals computed using PRISM.
 NBasis=  1000 RedAO= T  NBF=  1000
 NBsUse=  1000 1.00D-06 NBFU=  1000
 Precomputing XC quadrature grid using
 IXCGrd= 2 IRadAn=           0 IRanWt=          -1 IRanGd=           0 AccXCQ= 1.00D-10.
 NRdTot=    5772 NPtTot=      743592 NUsed=      785127 NTot=      785159
 NSgBfM=   432   439   439   439   439 NAtAll=    86    59.
 Leave Link  302 at Sun Jul 24 23:27:00 2011, MaxMem= 1441792000 cpu:      33.7
 (Enter /apps/gaussian/g09/g09/l303.exe)
 DipDrv:  MaxL=1.
 Leave Link  303 at Sun Jul 24 23:27:00 2011, MaxMem= 1441792000 cpu:       2.3
 (Enter /apps/gaussian/g09/g09/l401.exe)
 Initial guess read from the checkpoint file:  Chelpg_P3HT_12_cation_B3LYP_631GST
 AR.chk
 B after Tr=     0.000000    0.000000    0.000000
         Rot=    1.000000    0.000000    0.000000    0.000000 Ang=   0.00 deg.
 Guess basis will be translated and rotated to current coordinates.
 Initial guess orbital symmetries:
 Alpha Orbitals:
       Occupied  (A) (A) (A) (A) (A) (A) (A) (A) (A) (A) (A) (A)
                 (A) (A) (A) (A) (A) (A) (A) (A) (A) (A) (A) (A)
                 (A) (A) (A) (A) (A) (A) (A) (A) (A) (A) (A) (A)
                 (A) (A) (A) (A) (A) (A) (A) (A) (A) (A) (A) (A)
                 (A) (A) (A) (A) (A) (A) (A) (A) (A) (A) (A) (A)
                 (A) (A) (A) (A) (A) (A) (A) (A) (A) (A) (A) (A)
                 (A) (A) (A) (A) (A) (A) (A) (A) (A) (A) (A) (A)
                 (A) (A) (A) (A) (A) (A) (A) (A) (A) (A) (A) (A)
                 (A) (A) (A) (A) (A) (A) (A) (A) (A) (A) (A) (A)
                 (A) (A) (A) (A) (A) (A) (A) (A) (A) (A) (A) (A)
                 (A) (A) (A) (A) (A) (A) (A) (A) (A) (A) (A) (A)
                 (A) (A) (A) (A) (A) (A) (A) (A) (A) (A) (A) (A)
                 (A) (A) (A) (A) (A) (A) (A) (A) (A) (A) (A) (A)
                 (A) (A) (A) (A) (A) (A) (A) (A) (A) (A) (A) (A)
                 (A) (A) (A) (A) (A) (A) (A) (A) (A) (A) (A) (A)
                 (A) (A) (A) (A) (A) (A) (A) (A) (A) (A) (A) (A)
                 (A) (A) (A) (A) (A) (A) (A) (A) (A) (A) (A) (A)
                 (A) (A) (A) (A) (A) (A) (A) (A) (A) (A) (A) (A)
                 (A) (A) (A) (A) (A) (A) (A) (A) (A) (A) (A) (A)
                 (A) (A) (A) (A) (A) (A) (A) (A) (A) (A) (A) (A)
                 (A) (A) (A) (A) (A) (A) (A) (A) (A) (A) (A) (A)
                 (A)
       Virtual   (A) (A) (A) (A) (A) (A) (A) (A) (A) (A) (A) (A)
                 (A) (A) (A) (A) (A) (A) (A) (A) (A) (A) (A) (A)
                 (A) (A) (A) (A) (A) (A) (A) (A) (A) (A) (A) (A)
                 (A) (A) (A) (A) (A) (A) (A) (A) (A) (A) (A) (A)
                 (A) (A) (A) (A) (A) (A) (A) (A) (A) (A) (A) (A)
                 (A) (A) (A) (A) (A) (A) (A) (A) (A) (A) (A) (A)
                 (A) (A) (A) (A) (A) (A) (A) (A) (A) (A) (A) (A)
                 (A) (A) (A) (A) (A) (A) (A) (A) (A) (A) (A) (A)
                 (A) (A) (A) (A) (A) (A) (A) (A) (A) (A) (A) (A)
                 (A) (A) (A) (A) (A) (A) (A) (A) (A) (A) (A) (A)
                 (A) (A) (A) (A) (A) (A) (A) (A) (A) (A) (A) (A)
                 (A) (A) (A) (A) (A) (A) (A) (A) (A) (A) (A) (A)
                 (A) (A) (A) (A) (A) (A) (A) (A) (A) (A) (A) (A)
                 (A) (A) (A) (A) (A) (A) (A) (A) (A) (A) (A) (A)
                 (A) (A) (A) (A) (A) (A) (A) (A) (A) (A) (A) (A)
                 (A) (A) (A) (A) (A) (A) (A) (A) (A) (A) (A) (A)
                 (A) (A) (A) (A) (A) (A) (A) (A) (A) (A) (A) (A)
                 (A) (A) (A) (A) (A) (A) (A) (A) (A) (A) (A) (A)
                 (A) (A) (A) (A) (A) (A) (A) (A) (A) (A) (A) (A)
                 (A) (A) (A) (A) (A) (A) (A) (A) (A) (A) (A) (A)
                 (A) (A) (A) (A) (A) (A) (A) (A) (A) (A) (A) (A)
                 (A) (A) (A) (A) (A) (A) (A) (A) (A) (A) (A) (A)
                 (A) (A) (A) (A) (A) (A) (A) (A) (A) (A) (A) (A)
                 (A) (A) (A) (A) (A) (A) (A) (A) (A) (A) (A) (A)
                 (A) (A) (A) (A) (A) (A) (A) (A) (A) (A) (A) (A)
                 (A) (A) (A) (A) (A) (A) (A) (A) (A) (A) (A) (A)
                 (A) (A) (A) (A) (A) (A) (A) (A) (A) (A) (A) (A)
                 (A) (A) (A) (A) (A) (A) (A) (A) (A) (A) (A) (A)
                 (A) (A) (A) (A) (A) (A) (A) (A) (A) (A) (A) (A)
                 (A) (A) (A) (A) (A) (A) (A) (A) (A) (A) (A) (A)
                 (A) (A) (A) (A) (A) (A) (A) (A) (A) (A) (A) (A)
                 (A) (A) (A) (A) (A) (A) (A) (A) (A) (A) (A) (A)
                 (A) (A) (A) (A) (A) (A) (A) (A) (A) (A) (A) (A)
                 (A) (A) (A) (A) (A) (A) (A) (A) (A) (A) (A) (A)
                 (A) (A) (A) (A) (A) (A) (A) (A) (A) (A) (A) (A)
                 (A) (A) (A) (A) (A) (A) (A) (A) (A) (A) (A) (A)
                 (A) (A) (A) (A) (A) (A) (A) (A) (A) (A) (A) (A)
                 (A) (A) (A) (A) (A) (A) (A) (A) (A) (A) (A) (A)
                 (A) (A) (A) (A) (A) (A) (A) (A) (A) (A) (A) (A)
                 (A) (A) (A) (A) (A) (A) (A) (A) (A) (A) (A) (A)
                 (A) (A) (A) (A) (A) (A) (A) (A) (A) (A) (A) (A)
                 (A) (A) (A) (A) (A) (A) (A) (A) (A) (A) (A) (A)
                 (A) (A) (A) (A) (A) (A) (A) (A) (A) (A) (A) (A)
                 (A) (A) (A) (A) (A) (A) (A) (A) (A) (A) (A) (A)
                 (A) (A) (A) (A) (A) (A) (A) (A) (A) (A) (A) (A)
                 (A) (A) (A) (A) (A) (A) (A) (A) (A) (A) (A) (A)
                 (A) (A) (A) (A) (A) (A) (A) (A) (A) (A) (A) (A)
                 (A) (A) (A) (A) (A) (A) (A) (A) (A) (A) (A) (A)
                 (A) (A) (A) (A) (A) (A) (A) (A) (A) (A) (A) (A)
                 (A) (A) (A) (A) (A) (A) (A) (A) (A) (A) (A) (A)
                 (A) (A) (A) (A) (A) (A) (A) (A) (A) (A) (A) (A)
                 (A) (A) (A) (A) (A) (A) (A) (A) (A) (A) (A) (A)
                 (A) (A) (A) (A) (A) (A) (A) (A) (A) (A) (A) (A)
                 (A) (A) (A) (A) (A) (A) (A) (A) (A) (A) (A) (A)
                 (A) (A) (A) (A) (A) (A) (A) (A) (A) (A) (A) (A)
                 (A) (A) (A) (A) (A) (A) (A) (A) (A) (A) (A) (A)
                 (A) (A) (A) (A) (A) (A) (A) (A) (A) (A) (A) (A)
                 (A) (A) (A) (A) (A) (A) (A) (A) (A) (A) (A) (A)
                 (A) (A) (A) (A) (A) (A) (A) (A) (A) (A) (A) (A)
                 (A) (A) (A) (A) (A) (A) (A) (A) (A) (A) (A) (A)
                 (A) (A) (A) (A) (A) (A) (A) (A) (A) (A) (A) (A)
                 (A) (A) (A) (A) (A) (A) (A) (A) (A) (A) (A) (A)
                 (A) (A) (A)
 Beta  Orbitals:
       Occupied  (A) (A) (A) (A) (A) (A) (A) (A) (A) (A) (A) (A)
                 (A) (A) (A) (A) (A) (A) (A) (A) (A) (A) (A) (A)
                 (A) (A) (A) (A) (A) (A) (A) (A) (A) (A) (A) (A)
                 (A) (A) (A) (A) (A) (A) (A) (A) (A) (A) (A) (A)
                 (A) (A) (A) (A) (A) (A) (A) (A) (A) (A) (A) (A)
                 (A) (A) (A) (A) (A) (A) (A) (A) (A) (A) (A) (A)
                 (A) (A) (A) (A) (A) (A) (A) (A) (A) (A) (A) (A)
                 (A) (A) (A) (A) (A) (A) (A) (A) (A) (A) (A) (A)
                 (A) (A) (A) (A) (A) (A) (A) (A) (A) (A) (A) (A)
                 (A) (A) (A) (A) (A) (A) (A) (A) (A) (A) (A) (A)
                 (A) (A) (A) (A) (A) (A) (A) (A) (A) (A) (A) (A)
                 (A) (A) (A) (A) (A) (A) (A) (A) (A) (A) (A) (A)
                 (A) (A) (A) (A) (A) (A) (A) (A) (A) (A) (A) (A)
                 (A) (A) (A) (A) (A) (A) (A) (A) (A) (A) (A) (A)
                 (A) (A) (A) (A) (A) (A) (A) (A) (A) (A) (A) (A)
                 (A) (A) (A) (A) (A) (A) (A) (A) (A) (A) (A) (A)
                 (A) (A) (A) (A) (A) (A) (A) (A) (A) (A) (A) (A)
                 (A) (A) (A) (A) (A) (A) (A) (A) (A) (A) (A) (A)
                 (A) (A) (A) (A) (A) (A) (A) (A) (A) (A) (A) (A)
                 (A) (A) (A) (A) (A) (A) (A) (A) (A) (A) (A) (A)
                 (A) (A) (A) (A) (A) (A) (A) (A) (A) (A) (A) (A)
       Virtual   (A) (A) (A) (A) (A) (A) (A) (A) (A) (A) (A) (A)
                 (A) (A) (A) (A) (A) (A) (A) (A) (A) (A) (A) (A)
                 (A) (A) (A) (A) (A) (A) (A) (A) (A) (A) (A) (A)
                 (A) (A) (A) (A) (A) (A) (A) (A) (A) (A) (A) (A)
                 (A) (A) (A) (A) (A) (A) (A) (A) (A) (A) (A) (A)
                 (A) (A) (A) (A) (A) (A) (A) (A) (A) (A) (A) (A)
                 (A) (A) (A) (A) (A) (A) (A) (A) (A) (A) (A) (A)
                 (A) (A) (A) (A) (A) (A) (A) (A) (A) (A) (A) (A)
                 (A) (A) (A) (A) (A) (A) (A) (A) (A) (A) (A) (A)
                 (A) (A) (A) (A) (A) (A) (A) (A) (A) (A) (A) (A)
                 (A) (A) (A) (A) (A) (A) (A) (A) (A) (A) (A) (A)
                 (A) (A) (A) (A) (A) (A) (A) (A) (A) (A) (A) (A)
                 (A) (A) (A) (A) (A) (A) (A) (A) (A) (A) (A) (A)
                 (A) (A) (A) (A) (A) (A) (A) (A) (A) (A) (A) (A)
                 (A) (A) (A) (A) (A) (A) (A) (A) (A) (A) (A) (A)
                 (A) (A) (A) (A) (A) (A) (A) (A) (A) (A) (A) (A)
                 (A) (A) (A) (A) (A) (A) (A) (A) (A) (A) (A) (A)
                 (A) (A) (A) (A) (A) (A) (A) (A) (A) (A) (A) (A)
                 (A) (A) (A) (A) (A) (A) (A) (A) (A) (A) (A) (A)
                 (A) (A) (A) (A) (A) (A) (A) (A) (A) (A) (A) (A)
                 (A) (A) (A) (A) (A) (A) (A) (A) (A) (A) (A) (A)
                 (A) (A) (A) (A) (A) (A) (A) (A) (A) (A) (A) (A)
                 (A) (A) (A) (A) (A) (A) (A) (A) (A) (A) (A) (A)
                 (A) (A) (A) (A) (A) (A) (A) (A) (A) (A) (A) (A)
                 (A) (A) (A) (A) (A) (A) (A) (A) (A) (A) (A) (A)
                 (A) (A) (A) (A) (A) (A) (A) (A) (A) (A) (A) (A)
                 (A) (A) (A) (A) (A) (A) (A) (A) (A) (A) (A) (A)
                 (A) (A) (A) (A) (A) (A) (A) (A) (A) (A) (A) (A)
                 (A) (A) (A) (A) (A) (A) (A) (A) (A) (A) (A) (A)
                 (A) (A) (A) (A) (A) (A) (A) (A) (A) (A) (A) (A)
                 (A) (A) (A) (A) (A) (A) (A) (A) (A) (A) (A) (A)
                 (A) (A) (A) (A) (A) (A) (A) (A) (A) (A) (A) (A)
                 (A) (A) (A) (A) (A) (A) (A) (A) (A) (A) (A) (A)
                 (A) (A) (A) (A) (A) (A) (A) (A) (A) (A) (A) (A)
                 (A) (A) (A) (A) (A) (A) (A) (A) (A) (A) (A) (A)
                 (A) (A) (A) (A) (A) (A) (A) (A) (A) (A) (A) (A)
                 (A) (A) (A) (A) (A) (A) (A) (A) (A) (A) (A) (A)
                 (A) (A) (A) (A) (A) (A) (A) (A) (A) (A) (A) (A)
                 (A) (A) (A) (A) (A) (A) (A) (A) (A) (A) (A) (A)
                 (A) (A) (A) (A) (A) (A) (A) (A) (A) (A) (A) (A)
                 (A) (A) (A) (A) (A) (A) (A) (A) (A) (A) (A) (A)
                 (A) (A) (A) (A) (A) (A) (A) (A) (A) (A) (A) (A)
                 (A) (A) (A) (A) (A) (A) (A) (A) (A) (A) (A) (A)
                 (A) (A) (A) (A) (A) (A) (A) (A) (A) (A) (A) (A)
                 (A) (A) (A) (A) (A) (A) (A) (A) (A) (A) (A) (A)
                 (A) (A) (A) (A) (A) (A) (A) (A) (A) (A) (A) (A)
                 (A) (A) (A) (A) (A) (A) (A) (A) (A) (A) (A) (A)
                 (A) (A) (A) (A) (A) (A) (A) (A) (A) (A) (A) (A)
                 (A) (A) (A) (A) (A) (A) (A) (A) (A) (A) (A) (A)
                 (A) (A) (A) (A) (A) (A) (A) (A) (A) (A) (A) (A)
                 (A) (A) (A) (A) (A) (A) (A) (A) (A) (A) (A) (A)
                 (A) (A) (A) (A) (A) (A) (A) (A) (A) (A) (A) (A)
                 (A) (A) (A) (A) (A) (A) (A) (A) (A) (A) (A) (A)
                 (A) (A) (A) (A) (A) (A) (A) (A) (A) (A) (A) (A)
                 (A) (A) (A) (A) (A) (A) (A) (A) (A) (A) (A) (A)
                 (A) (A) (A) (A) (A) (A) (A) (A) (A) (A) (A) (A)
                 (A) (A) (A) (A) (A) (A) (A) (A) (A) (A) (A) (A)
                 (A) (A) (A) (A) (A) (A) (A) (A) (A) (A) (A) (A)
                 (A) (A) (A) (A) (A) (A) (A) (A) (A) (A) (A) (A)
                 (A) (A) (A) (A) (A) (A) (A) (A) (A) (A) (A) (A)
                 (A) (A) (A) (A) (A) (A) (A) (A) (A) (A) (A) (A)
                 (A) (A) (A) (A) (A) (A) (A) (A) (A) (A) (A) (A)
                 (A) (A) (A) (A)
 The electronic state of the initial guess is 2-A.
 Initial guess <Sx>= 0.0000 <Sy>= 0.0000 <Sz>= 0.5000 <S**2>= 0.7656 S= 0.5078
 Leave Link  401 at Sun Jul 24 23:27:17 2011, MaxMem= 1441792000 cpu:     133.9
 (Enter /apps/gaussian/g09/g09/l502.exe)
 UHF open shell SCF:
 Requested convergence on RMS density matrix=1.00D-08 within 128 cycles.
 Requested convergence on MAX density matrix=1.00D-06.
 Requested convergence on             energy=1.00D-06.
 No special actions if energy rises.
 Using DIIS extrapolation, IDIIS=  1040.
 Integral symmetry usage will be decided dynamically.
       784340 words used for storage of precomputed grid.
 IEnd=     3817962 IEndB=     3817962 NGot=  1441792000 MDV=  1438991679
 LenX=  1438991679 LenY=  1437990679
 Fock matrices will be formed incrementally for  20 cycles.

 Cycle   1  Pass 1  IDiag  1:
 FoFCou: FMM=T IPFlag=           0 FMFlag=      100000 FMFlg1=        2001
         NFxFlg=           0 DoJE=F BraDBF=F KetDBF=F FulRan=T
         Omega=  0.000000  0.000000  1.000000  0.000000  0.000000 ICntrl=       0 IOpCl=  1
         NMat0=    1 NMatS0=    1 NMatT0=    0 NMatD0=    1 NMtDS0=    0 NMtDT0=    0
         I1Cent=           0 NGrid=           0.
 Symmetry not used in FoFCou.
 FMM levels:  10  Number of levels for PrismC:   9
 E= -6622.77405330717    
 DIIS: error= 2.30D-08 at cycle   1 NSaved=   1.
 NSaved= 1 IEnMin= 1 EnMin= -6622.77405330717     IErMin= 1 ErrMin= 2.30D-08
 ErrMax= 2.30D-08 EMaxC= 1.00D-01 BMatC= 2.31D-12 BMatP= 2.31D-12
 IDIUse=1 WtCom= 1.00D+00 WtEn= 0.00D+00
 Coeff-Com:  0.100D+01
 Coeff:      0.100D+01
 Gap=     0.073 Goal=   None    Shift=    0.000
 Gap=     0.016 Goal=   None    Shift=    0.000
 RMSDP=3.10D-09 MaxDP=2.95D-07              OVMax= 1.70D-06

 SCF Done:  E(UB3LYP) =  -6622.77405331     A.U. after    1 cycles
             Convg  =    0.3103D-08             -V/T =  2.0051
 <Sx>= 0.0000 <Sy>= 0.0000 <Sz>= 0.5000 <S**2>= 0.7656 S= 0.5078
 <L.S>= 0.000000000000E+00
 KE= 6.589047730118D+03 PE=-3.211270085192D+04 EE= 1.063845178569D+04
 Annihilation of the first spin contaminant:
 S**2 before annihilation     0.7656,   after     0.7502
 DiagDN has N=  1000 LTot=  3032 but NE2=     3 cannot use DSYEVD.
 Leave Link  502 at Sun Jul 24 23:28:48 2011, MaxMem= 1441792000 cpu:     728.4
 (Enter /apps/gaussian/g09/g09/l601.exe)
 Copying SCF densities to generalized density rwf, IOpCl= 1 IROHF=0.

 **********************************************************************

            Population analysis using the SCF density.

 **********************************************************************

 Orbital symmetries:
 Alpha Orbitals:
       Occupied  (A) (A) (A) (A) (A) (A) (A) (A) (A) (A) (A) (A)
                 (A) (A) (A) (A) (A) (A) (A) (A) (A) (A) (A) (A)
                 (A) (A) (A) (A) (A) (A) (A) (A) (A) (A) (A) (A)
                 (A) (A) (A) (A) (A) (A) (A) (A) (A) (A) (A) (A)
                 (A) (A) (A) (A) (A) (A) (A) (A) (A) (A) (A) (A)
                 (A) (A) (A) (A) (A) (A) (A) (A) (A) (A) (A) (A)
                 (A) (A) (A) (A) (A) (A) (A) (A) (A) (A) (A) (A)
                 (A) (A) (A) (A) (A) (A) (A) (A) (A) (A) (A) (A)
                 (A) (A) (A) (A) (A) (A) (A) (A) (A) (A) (A) (A)
                 (A) (A) (A) (A) (A) (A) (A) (A) (A) (A) (A) (A)
                 (A) (A) (A) (A) (A) (A) (A) (A) (A) (A) (A) (A)
                 (A) (A) (A) (A) (A) (A) (A) (A) (A) (A) (A) (A)
                 (A) (A) (A) (A) (A) (A) (A) (A) (A) (A) (A) (A)
                 (A) (A) (A) (A) (A) (A) (A) (A) (A) (A) (A) (A)
                 (A) (A) (A) (A) (A) (A) (A) (A) (A) (A) (A) (A)
                 (A) (A) (A) (A) (A) (A) (A) (A) (A) (A) (A) (A)
                 (A) (A) (A) (A) (A) (A) (A) (A) (A) (A) (A) (A)
                 (A) (A) (A) (A) (A) (A) (A) (A) (A) (A) (A) (A)
                 (A) (A) (A) (A) (A) (A) (A) (A) (A) (A) (A) (A)
                 (A) (A) (A) (A) (A) (A) (A) (A) (A) (A) (A) (A)
                 (A) (A) (A) (A) (A) (A) (A) (A) (A) (A) (A) (A)
                 (A)
       Virtual   (A) (A) (A) (A) (A) (A) (A) (A) (A) (A) (A) (A)
                 (A) (A) (A) (A) (A) (A) (A) (A) (A) (A) (A) (A)
                 (A) (A) (A) (A) (A) (A) (A) (A) (A) (A) (A) (A)
                 (A) (A) (A) (A) (A) (A) (A) (A) (A) (A) (A) (A)
                 (A) (A) (A) (A) (A) (A) (A) (A) (A) (A) (A) (A)
                 (A) (A) (A) (A) (A) (A) (A) (A) (A) (A) (A) (A)
                 (A) (A) (A) (A) (A) (A) (A) (A) (A) (A) (A) (A)
                 (A) (A) (A) (A) (A) (A) (A) (A) (A) (A) (A) (A)
                 (A) (A) (A) (A) (A) (A) (A) (A) (A) (A) (A) (A)
                 (A) (A) (A) (A) (A) (A) (A) (A) (A) (A) (A) (A)
                 (A) (A) (A) (A) (A) (A) (A) (A) (A) (A) (A) (A)
                 (A) (A) (A) (A) (A) (A) (A) (A) (A) (A) (A) (A)
                 (A) (A) (A) (A) (A) (A) (A) (A) (A) (A) (A) (A)
                 (A) (A) (A) (A) (A) (A) (A) (A) (A) (A) (A) (A)
                 (A) (A) (A) (A) (A) (A) (A) (A) (A) (A) (A) (A)
                 (A) (A) (A) (A) (A) (A) (A) (A) (A) (A) (A) (A)
                 (A) (A) (A) (A) (A) (A) (A) (A) (A) (A) (A) (A)
                 (A) (A) (A) (A) (A) (A) (A) (A) (A) (A) (A) (A)
                 (A) (A) (A) (A) (A) (A) (A) (A) (A) (A) (A) (A)
                 (A) (A) (A) (A) (A) (A) (A) (A) (A) (A) (A) (A)
                 (A) (A) (A) (A) (A) (A) (A) (A) (A) (A) (A) (A)
                 (A) (A) (A) (A) (A) (A) (A) (A) (A) (A) (A) (A)
                 (A) (A) (A) (A) (A) (A) (A) (A) (A) (A) (A) (A)
                 (A) (A) (A) (A) (A) (A) (A) (A) (A) (A) (A) (A)
                 (A) (A) (A) (A) (A) (A) (A) (A) (A) (A) (A) (A)
                 (A) (A) (A) (A) (A) (A) (A) (A) (A) (A) (A) (A)
                 (A) (A) (A) (A) (A) (A) (A) (A) (A) (A) (A) (A)
                 (A) (A) (A) (A) (A) (A) (A) (A) (A) (A) (A) (A)
                 (A) (A) (A) (A) (A) (A) (A) (A) (A) (A) (A) (A)
                 (A) (A) (A) (A) (A) (A) (A) (A) (A) (A) (A) (A)
                 (A) (A) (A) (A) (A) (A) (A) (A) (A) (A) (A) (A)
                 (A) (A) (A) (A) (A) (A) (A) (A) (A) (A) (A) (A)
                 (A) (A) (A) (A) (A) (A) (A) (A) (A) (A) (A) (A)
                 (A) (A) (A) (A) (A) (A) (A) (A) (A) (A) (A) (A)
                 (A) (A) (A) (A) (A) (A) (A) (A) (A) (A) (A) (A)
                 (A) (A) (A) (A) (A) (A) (A) (A) (A) (A) (A) (A)
                 (A) (A) (A) (A) (A) (A) (A) (A) (A) (A) (A) (A)
                 (A) (A) (A) (A) (A) (A) (A) (A) (A) (A) (A) (A)
                 (A) (A) (A) (A) (A) (A) (A) (A) (A) (A) (A) (A)
                 (A) (A) (A) (A) (A) (A) (A) (A) (A) (A) (A) (A)
                 (A) (A) (A) (A) (A) (A) (A) (A) (A) (A) (A) (A)
                 (A) (A) (A) (A) (A) (A) (A) (A) (A) (A) (A) (A)
                 (A) (A) (A) (A) (A) (A) (A) (A) (A) (A) (A) (A)
                 (A) (A) (A) (A) (A) (A) (A) (A) (A) (A) (A) (A)
                 (A) (A) (A) (A) (A) (A) (A) (A) (A) (A) (A) (A)
                 (A) (A) (A) (A) (A) (A) (A) (A) (A) (A) (A) (A)
                 (A) (A) (A) (A) (A) (A) (A) (A) (A) (A) (A) (A)
                 (A) (A) (A) (A) (A) (A) (A) (A) (A) (A) (A) (A)
                 (A) (A) (A) (A) (A) (A) (A) (A) (A) (A) (A) (A)
                 (A) (A) (A) (A) (A) (A) (A) (A) (A) (A) (A) (A)
                 (A) (A) (A) (A) (A) (A) (A) (A) (A) (A) (A) (A)
                 (A) (A) (A) (A) (A) (A) (A) (A) (A) (A) (A) (A)
                 (A) (A) (A) (A) (A) (A) (A) (A) (A) (A) (A) (A)
                 (A) (A) (A) (A) (A) (A) (A) (A) (A) (A) (A) (A)
                 (A) (A) (A) (A) (A) (A) (A) (A) (A) (A) (A) (A)
                 (A) (A) (A) (A) (A) (A) (A) (A) (A) (A) (A) (A)
                 (A) (A) (A) (A) (A) (A) (A) (A) (A) (A) (A) (A)
                 (A) (A) (A) (A) (A) (A) (A) (A) (A) (A) (A) (A)
                 (A) (A) (A) (A) (A) (A) (A) (A) (A) (A) (A) (A)
                 (A) (A) (A) (A) (A) (A) (A) (A) (A) (A) (A) (A)
                 (A) (A) (A) (A) (A) (A) (A) (A) (A) (A) (A) (A)
                 (A) (A) (A) (A) (A) (A) (A) (A) (A) (A) (A) (A)
                 (A) (A) (A)
 Beta  Orbitals:
       Occupied  (A) (A) (A) (A) (A) (A) (A) (A) (A) (A) (A) (A)
                 (A) (A) (A) (A) (A) (A) (A) (A) (A) (A) (A) (A)
                 (A) (A) (A) (A) (A) (A) (A) (A) (A) (A) (A) (A)
                 (A) (A) (A) (A) (A) (A) (A) (A) (A) (A) (A) (A)
                 (A) (A) (A) (A) (A) (A) (A) (A) (A) (A) (A) (A)
                 (A) (A) (A) (A) (A) (A) (A) (A) (A) (A) (A) (A)
                 (A) (A) (A) (A) (A) (A) (A) (A) (A) (A) (A) (A)
                 (A) (A) (A) (A) (A) (A) (A) (A) (A) (A) (A) (A)
                 (A) (A) (A) (A) (A) (A) (A) (A) (A) (A) (A) (A)
                 (A) (A) (A) (A) (A) (A) (A) (A) (A) (A) (A) (A)
                 (A) (A) (A) (A) (A) (A) (A) (A) (A) (A) (A) (A)
                 (A) (A) (A) (A) (A) (A) (A) (A) (A) (A) (A) (A)
                 (A) (A) (A) (A) (A) (A) (A) (A) (A) (A) (A) (A)
                 (A) (A) (A) (A) (A) (A) (A) (A) (A) (A) (A) (A)
                 (A) (A) (A) (A) (A) (A) (A) (A) (A) (A) (A) (A)
                 (A) (A) (A) (A) (A) (A) (A) (A) (A) (A) (A) (A)
                 (A) (A) (A) (A) (A) (A) (A) (A) (A) (A) (A) (A)
                 (A) (A) (A) (A) (A) (A) (A) (A) (A) (A) (A) (A)
                 (A) (A) (A) (A) (A) (A) (A) (A) (A) (A) (A) (A)
                 (A) (A) (A) (A) (A) (A) (A) (A) (A) (A) (A) (A)
                 (A) (A) (A) (A) (A) (A) (A) (A) (A) (A) (A) (A)
       Virtual   (A) (A) (A) (A) (A) (A) (A) (A) (A) (A) (A) (A)
                 (A) (A) (A) (A) (A) (A) (A) (A) (A) (A) (A) (A)
                 (A) (A) (A) (A) (A) (A) (A) (A) (A) (A) (A) (A)
                 (A) (A) (A) (A) (A) (A) (A) (A) (A) (A) (A) (A)
                 (A) (A) (A) (A) (A) (A) (A) (A) (A) (A) (A) (A)
                 (A) (A) (A) (A) (A) (A) (A) (A) (A) (A) (A) (A)
                 (A) (A) (A) (A) (A) (A) (A) (A) (A) (A) (A) (A)
                 (A) (A) (A) (A) (A) (A) (A) (A) (A) (A) (A) (A)
                 (A) (A) (A) (A) (A) (A) (A) (A) (A) (A) (A) (A)
                 (A) (A) (A) (A) (A) (A) (A) (A) (A) (A) (A) (A)
                 (A) (A) (A) (A) (A) (A) (A) (A) (A) (A) (A) (A)
                 (A) (A) (A) (A) (A) (A) (A) (A) (A) (A) (A) (A)
                 (A) (A) (A) (A) (A) (A) (A) (A) (A) (A) (A) (A)
                 (A) (A) (A) (A) (A) (A) (A) (A) (A) (A) (A) (A)
                 (A) (A) (A) (A) (A) (A) (A) (A) (A) (A) (A) (A)
                 (A) (A) (A) (A) (A) (A) (A) (A) (A) (A) (A) (A)
                 (A) (A) (A) (A) (A) (A) (A) (A) (A) (A) (A) (A)
                 (A) (A) (A) (A) (A) (A) (A) (A) (A) (A) (A) (A)
                 (A) (A) (A) (A) (A) (A) (A) (A) (A) (A) (A) (A)
                 (A) (A) (A) (A) (A) (A) (A) (A) (A) (A) (A) (A)
                 (A) (A) (A) (A) (A) (A) (A) (A) (A) (A) (A) (A)
                 (A) (A) (A) (A) (A) (A) (A) (A) (A) (A) (A) (A)
                 (A) (A) (A) (A) (A) (A) (A) (A) (A) (A) (A) (A)
                 (A) (A) (A) (A) (A) (A) (A) (A) (A) (A) (A) (A)
                 (A) (A) (A) (A) (A) (A) (A) (A) (A) (A) (A) (A)
                 (A) (A) (A) (A) (A) (A) (A) (A) (A) (A) (A) (A)
                 (A) (A) (A) (A) (A) (A) (A) (A) (A) (A) (A) (A)
                 (A) (A) (A) (A) (A) (A) (A) (A) (A) (A) (A) (A)
                 (A) (A) (A) (A) (A) (A) (A) (A) (A) (A) (A) (A)
                 (A) (A) (A) (A) (A) (A) (A) (A) (A) (A) (A) (A)
                 (A) (A) (A) (A) (A) (A) (A) (A) (A) (A) (A) (A)
                 (A) (A) (A) (A) (A) (A) (A) (A) (A) (A) (A) (A)
                 (A) (A) (A) (A) (A) (A) (A) (A) (A) (A) (A) (A)
                 (A) (A) (A) (A) (A) (A) (A) (A) (A) (A) (A) (A)
                 (A) (A) (A) (A) (A) (A) (A) (A) (A) (A) (A) (A)
                 (A) (A) (A) (A) (A) (A) (A) (A) (A) (A) (A) (A)
                 (A) (A) (A) (A) (A) (A) (A) (A) (A) (A) (A) (A)
                 (A) (A) (A) (A) (A) (A) (A) (A) (A) (A) (A) (A)
                 (A) (A) (A) (A) (A) (A) (A) (A) (A) (A) (A) (A)
                 (A) (A) (A) (A) (A) (A) (A) (A) (A) (A) (A) (A)
                 (A) (A) (A) (A) (A) (A) (A) (A) (A) (A) (A) (A)
                 (A) (A) (A) (A) (A) (A) (A) (A) (A) (A) (A) (A)
                 (A) (A) (A) (A) (A) (A) (A) (A) (A) (A) (A) (A)
                 (A) (A) (A) (A) (A) (A) (A) (A) (A) (A) (A) (A)
                 (A) (A) (A) (A) (A) (A) (A) (A) (A) (A) (A) (A)
                 (A) (A) (A) (A) (A) (A) (A) (A) (A) (A) (A) (A)
                 (A) (A) (A) (A) (A) (A) (A) (A) (A) (A) (A) (A)
                 (A) (A) (A) (A) (A) (A) (A) (A) (A) (A) (A) (A)
                 (A) (A) (A) (A) (A) (A) (A) (A) (A) (A) (A) (A)
                 (A) (A) (A) (A) (A) (A) (A) (A) (A) (A) (A) (A)
                 (A) (A) (A) (A) (A) (A) (A) (A) (A) (A) (A) (A)
                 (A) (A) (A) (A) (A) (A) (A) (A) (A) (A) (A) (A)
                 (A) (A) (A) (A) (A) (A) (A) (A) (A) (A) (A) (A)
                 (A) (A) (A) (A) (A) (A) (A) (A) (A) (A) (A) (A)
                 (A) (A) (A) (A) (A) (A) (A) (A) (A) (A) (A) (A)
                 (A) (A) (A) (A) (A) (A) (A) (A) (A) (A) (A) (A)
                 (A) (A) (A) (A) (A) (A) (A) (A) (A) (A) (A) (A)
                 (A) (A) (A) (A) (A) (A) (A) (A) (A) (A) (A) (A)
                 (A) (A) (A) (A) (A) (A) (A) (A) (A) (A) (A) (A)
                 (A) (A) (A) (A) (A) (A) (A) (A) (A) (A) (A) (A)
                 (A) (A) (A) (A) (A) (A) (A) (A) (A) (A) (A) (A)
                 (A) (A) (A) (A) (A) (A) (A) (A) (A) (A) (A) (A)
                 (A) (A) (A) (A)
 The electronic state is 2-A.
 Alpha  occ. eigenvalues --  -88.98919 -88.98919 -88.98767 -88.98767 -88.98455
 Alpha  occ. eigenvalues --  -88.98455 -88.97956 -88.97956 -88.97269 -88.97269
 Alpha  occ. eigenvalues --  -88.96450 -88.96450 -10.31736 -10.31736 -10.31724
 Alpha  occ. eigenvalues --  -10.31680 -10.31611 -10.31611 -10.31509 -10.31509
 Alpha  occ. eigenvalues --  -10.31312 -10.31312 -10.31139 -10.31139 -10.30799
 Alpha  occ. eigenvalues --  -10.30799 -10.30559 -10.30559 -10.29997 -10.29997
 Alpha  occ. eigenvalues --  -10.29754 -10.29754 -10.28699 -10.28699 -10.28185
 Alpha  occ. eigenvalues --  -10.28185 -10.28107 -10.28107 -10.28077 -10.28077
 Alpha  occ. eigenvalues --  -10.27895 -10.27895 -10.27799 -10.27799 -10.27490
 Alpha  occ. eigenvalues --  -10.27490 -10.27332 -10.27332 -10.27318 -10.27318
 Alpha  occ. eigenvalues --  -10.26874 -10.26874 -10.26568 -10.26568 -10.26009
 Alpha  occ. eigenvalues --  -10.26009 -10.25399 -10.25399 -10.24946 -10.24946
 Alpha  occ. eigenvalues --   -8.05025  -8.05024  -8.04872  -8.04872  -8.04560
 Alpha  occ. eigenvalues --   -8.04560  -8.04062  -8.04062  -8.03375  -8.03375
 Alpha  occ. eigenvalues --   -8.02565  -8.02565  -6.01466  -6.01464  -6.01313
 Alpha  occ. eigenvalues --   -6.01313  -6.01093  -6.01092  -6.01000  -6.01000
 Alpha  occ. eigenvalues --   -6.00940  -6.00940  -6.00647  -6.00647  -6.00628
 Alpha  occ. eigenvalues --   -6.00628  -6.00500  -6.00500  -6.00496  -6.00496
 Alpha  occ. eigenvalues --   -6.00185  -6.00185  -6.00128  -6.00128  -5.99810
 Alpha  occ. eigenvalues --   -5.99810  -5.99692  -5.99692  -5.99438  -5.99438
 Alpha  occ. eigenvalues --   -5.99015  -5.99015  -5.98979  -5.98979  -5.98603
 Alpha  occ. eigenvalues --   -5.98603  -5.98252  -5.98252  -0.98492  -0.98031
 Alpha  occ. eigenvalues --   -0.97561  -0.97085  -0.96601  -0.96104  -0.95589
 Alpha  occ. eigenvalues --   -0.95072  -0.94494  -0.94238  -0.92946  -0.92934
 Alpha  occ. eigenvalues --   -0.87886  -0.86848  -0.85822  -0.84808  -0.83848
 Alpha  occ. eigenvalues --   -0.83007  -0.82963  -0.82442  -0.82309  -0.81879
 Alpha  occ. eigenvalues --   -0.81718  -0.81407  -0.81237  -0.80631  -0.80615
 Alpha  occ. eigenvalues --   -0.80508  -0.79635  -0.79075  -0.78849  -0.78198
 Alpha  occ. eigenvalues --   -0.77118  -0.76138  -0.74950  -0.74819  -0.70766
 Alpha  occ. eigenvalues --   -0.70085  -0.69344  -0.68578  -0.67786  -0.66973
 Alpha  occ. eigenvalues --   -0.66147  -0.65322  -0.64522  -0.63694  -0.63243
 Alpha  occ. eigenvalues --   -0.61918  -0.61622  -0.61453  -0.61090  -0.61045
 Alpha  occ. eigenvalues --   -0.60668  -0.60638  -0.60420  -0.60368  -0.60231
 Alpha  occ. eigenvalues --   -0.59740  -0.59569  -0.59145  -0.59092  -0.58774
 Alpha  occ. eigenvalues --   -0.58149  -0.57629  -0.56577  -0.55198  -0.53927
 Alpha  occ. eigenvalues --   -0.53096  -0.52648  -0.52600  -0.51556  -0.51553
 Alpha  occ. eigenvalues --   -0.50068  -0.50067  -0.49521  -0.49332  -0.49276
 Alpha  occ. eigenvalues --   -0.49003  -0.48812  -0.48717  -0.48469  -0.48343
 Alpha  occ. eigenvalues --   -0.48275  -0.47919  -0.47646  -0.47645  -0.47345
 Alpha  occ. eigenvalues --   -0.46987  -0.46970  -0.46730  -0.46617  -0.46558
 Alpha  occ. eigenvalues --   -0.46458  -0.46188  -0.46059  -0.45985  -0.45777
 Alpha  occ. eigenvalues --   -0.45387  -0.45322  -0.45307  -0.45268  -0.44815
 Alpha  occ. eigenvalues --   -0.44517  -0.44436  -0.44026  -0.43770  -0.43383
 Alpha  occ. eigenvalues --   -0.42966  -0.42579  -0.42489  -0.42285  -0.42169
 Alpha  occ. eigenvalues --   -0.41798  -0.41501  -0.41320  -0.41024  -0.41009
 Alpha  occ. eigenvalues --   -0.40383  -0.40383  -0.39395  -0.39380  -0.39380
 Alpha  occ. eigenvalues --   -0.37975  -0.36600  -0.35222  -0.34258  -0.34108
 Alpha  occ. eigenvalues --   -0.33723  -0.33706  -0.33342  -0.33220  -0.33020
 Alpha  occ. eigenvalues --   -0.32754  -0.32656  -0.32052  -0.31962  -0.31848
 Alpha  occ. eigenvalues --   -0.30749  -0.30749  -0.30444  -0.28881  -0.27319
 Alpha  occ. eigenvalues --   -0.25836  -0.24353  -0.23847
 Alpha virt. eigenvalues --   -0.16545  -0.15080  -0.13669  -0.12297  -0.10948
 Alpha virt. eigenvalues --   -0.09621  -0.08315  -0.07034  -0.06363  -0.06360
 Alpha virt. eigenvalues --   -0.05862  -0.05850  -0.05783  -0.05501  -0.05430
 Alpha virt. eigenvalues --   -0.05032  -0.04941  -0.04559  -0.04258  -0.04207
 Alpha virt. eigenvalues --   -0.03527  -0.03104  -0.02936  -0.02537  -0.01808
 Alpha virt. eigenvalues --   -0.01378  -0.01283  -0.00343  -0.00199   0.00608
 Alpha virt. eigenvalues --    0.00859   0.01258   0.01382   0.01433   0.01709
 Alpha virt. eigenvalues --    0.01764   0.01957   0.02223   0.02393   0.02413
 Alpha virt. eigenvalues --    0.02453   0.02498   0.03126   0.03127   0.03914
 Alpha virt. eigenvalues --    0.03918   0.04095   0.04095   0.05403   0.05634
 Alpha virt. eigenvalues --    0.05882   0.06294   0.06467   0.06492   0.07034
 Alpha virt. eigenvalues --    0.07937   0.08898   0.09836   0.10148   0.10331
 Alpha virt. eigenvalues --    0.10688   0.11056   0.11446   0.11520   0.11809
 Alpha virt. eigenvalues --    0.12134   0.12614   0.12769   0.12869   0.13389
 Alpha virt. eigenvalues --    0.13485   0.13635   0.14101   0.14312   0.14466
 Alpha virt. eigenvalues --    0.14474   0.14708   0.15299   0.15804   0.16405
 Alpha virt. eigenvalues --    0.17188   0.17242   0.17652   0.17809   0.18011
 Alpha virt. eigenvalues --    0.18104   0.18411   0.18564   0.18640   0.18972
 Alpha virt. eigenvalues --    0.18972   0.19287   0.19674   0.19830   0.19903
 Alpha virt. eigenvalues --    0.20386   0.20843   0.21117   0.21307   0.21644
 Alpha virt. eigenvalues --    0.21900   0.22227   0.22394   0.22643   0.22977
 Alpha virt. eigenvalues --    0.23547   0.23590   0.24711   0.24711   0.27812
 Alpha virt. eigenvalues --    0.27864   0.28361   0.28469   0.28483   0.28568
 Alpha virt. eigenvalues --    0.28607   0.28728   0.28846   0.28872   0.29141
 Alpha virt. eigenvalues --    0.29144   0.29146   0.29510   0.29610   0.29610
 Alpha virt. eigenvalues --    0.30000   0.30098   0.30254   0.30254   0.30459
 Alpha virt. eigenvalues --    0.30643   0.30658   0.31347   0.31347   0.31399
 Alpha virt. eigenvalues --    0.31726   0.31815   0.32313   0.32418   0.32901
 Alpha virt. eigenvalues --    0.33960   0.34770   0.35378   0.35505   0.36364
 Alpha virt. eigenvalues --    0.36376   0.38143   0.38183   0.38209   0.38951
 Alpha virt. eigenvalues --    0.38959   0.39038   0.39242   0.39631   0.39795
 Alpha virt. eigenvalues --    0.40138   0.40213   0.40829   0.41395   0.41524
 Alpha virt. eigenvalues --    0.41934   0.42330   0.42407   0.42816   0.43019
 Alpha virt. eigenvalues --    0.43325   0.43416   0.44351   0.44369   0.44886
 Alpha virt. eigenvalues --    0.44898   0.45175   0.45192   0.45742   0.45853
 Alpha virt. eigenvalues --    0.46340   0.46601   0.47118   0.47398   0.47398
 Alpha virt. eigenvalues --    0.47934   0.47986   0.48469   0.48609   0.48680
 Alpha virt. eigenvalues --    0.49388   0.49423   0.49464   0.49634   0.49863
 Alpha virt. eigenvalues --    0.50112   0.50313   0.50765   0.50796   0.50938
 Alpha virt. eigenvalues --    0.51424   0.51456   0.51600   0.51665   0.51965
 Alpha virt. eigenvalues --    0.52018   0.52242   0.52263   0.52555   0.52558
 Alpha virt. eigenvalues --    0.52776   0.53118   0.53119   0.53300   0.53311
 Alpha virt. eigenvalues --    0.53311   0.53734   0.54131   0.54131   0.54355
 Alpha virt. eigenvalues --    0.54790   0.55100   0.55204   0.55383   0.55460
 Alpha virt. eigenvalues --    0.55460   0.55702   0.55882   0.56105   0.56765
 Alpha virt. eigenvalues --    0.56892   0.57112   0.57821   0.58149   0.59335
 Alpha virt. eigenvalues --    0.59337   0.60716   0.60725   0.61131   0.61154
 Alpha virt. eigenvalues --    0.61274   0.61289   0.61411   0.61552   0.61558
 Alpha virt. eigenvalues --    0.62006   0.62013   0.62439   0.62815   0.62815
 Alpha virt. eigenvalues --    0.63558   0.64785   0.66102   0.67447   0.68113
 Alpha virt. eigenvalues --    0.68690   0.68930   0.69639   0.69745   0.70332
 Alpha virt. eigenvalues --    0.70481   0.70911   0.71185   0.71345   0.71484
 Alpha virt. eigenvalues --    0.71509   0.71731   0.71913   0.72033   0.72364
 Alpha virt. eigenvalues --    0.72402   0.72413   0.72710   0.72827   0.73005
 Alpha virt. eigenvalues --    0.73041   0.73292   0.73506   0.73777   0.74220
 Alpha virt. eigenvalues --    0.74384   0.74671   0.74937   0.75128   0.75445
 Alpha virt. eigenvalues --    0.75494   0.75500   0.75843   0.76101   0.76222
 Alpha virt. eigenvalues --    0.76349   0.76535   0.76676   0.76919   0.76998
 Alpha virt. eigenvalues --    0.77166   0.77370   0.77551   0.77621   0.77754
 Alpha virt. eigenvalues --    0.77938   0.78361   0.78460   0.78656   0.79238
 Alpha virt. eigenvalues --    0.79783   0.80198   0.80218   0.80555   0.81023
 Alpha virt. eigenvalues --    0.81445   0.81677   0.81996   0.82126   0.82489
 Alpha virt. eigenvalues --    0.82599   0.82765   0.82863   0.83361   0.83380
 Alpha virt. eigenvalues --    0.83674   0.84130   0.84223   0.84519   0.84800
 Alpha virt. eigenvalues --    0.85087   0.85327   0.85504   0.85821   0.85950
 Alpha virt. eigenvalues --    0.86522   0.86673   0.86675   0.86797   0.87133
 Alpha virt. eigenvalues --    0.87396   0.87423   0.87608   0.88357   0.88804
 Alpha virt. eigenvalues --    0.88824   0.88926   0.89785   0.89827   0.89832
 Alpha virt. eigenvalues --    0.89836   0.91912   0.92029   0.92351   0.92612
 Alpha virt. eigenvalues --    0.92936   0.93542   0.94357   0.94628   0.95034
 Alpha virt. eigenvalues --    0.95064   0.95313   0.95472   0.95693   0.95948
 Alpha virt. eigenvalues --    0.96423   0.96491   0.96752   0.97094   0.97121
 Alpha virt. eigenvalues --    0.97436   0.97789   0.97842   0.98046   0.98174
 Alpha virt. eigenvalues --    0.98345   0.98566   0.98664   0.98733   0.98943
 Alpha virt. eigenvalues --    0.99226   0.99273   0.99978   0.99982   1.00157
 Alpha virt. eigenvalues --    1.00163   1.03096   1.03455   1.03958   1.04539
 Alpha virt. eigenvalues --    1.04646   1.04787   1.05794   1.07115   1.08319
 Alpha virt. eigenvalues --    1.08443   1.09153   1.09495   1.09606   1.09741
 Alpha virt. eigenvalues --    1.10256   1.10647   1.10970   1.11454   1.12025
 Alpha virt. eigenvalues --    1.12657   1.13335   1.14071   1.14930   1.16056
 Alpha virt. eigenvalues --    1.16582   1.18808   1.18973   1.19220   1.19835
 Alpha virt. eigenvalues --    1.19876   1.20694   1.20697   1.21565   1.21721
 Alpha virt. eigenvalues --    1.22460   1.22968   1.23384   1.24324   1.24382
 Alpha virt. eigenvalues --    1.25248   1.25824   1.26089   1.26981   1.27026
 Alpha virt. eigenvalues --    1.27258   1.27285   1.28700   1.28712   1.29264
 Alpha virt. eigenvalues --    1.29331   1.29785   1.30096   1.30270   1.30421
 Alpha virt. eigenvalues --    1.30648   1.30914   1.31275   1.31315   1.31434
 Alpha virt. eigenvalues --    1.31658   1.31861   1.31950   1.32237   1.32322
 Alpha virt. eigenvalues --    1.32371   1.32888   1.32889   1.33824   1.34129
 Alpha virt. eigenvalues --    1.34129   1.34963   1.38873   1.39749   1.39749
 Alpha virt. eigenvalues --    1.40242   1.41358   1.42206   1.42681   1.42770
 Alpha virt. eigenvalues --    1.42996   1.43457   1.43483   1.43937   1.43987
 Alpha virt. eigenvalues --    1.43988   1.44435   1.44884   1.45244   1.45341
 Alpha virt. eigenvalues --    1.45671   1.45689   1.46384   1.46385   1.47663
 Alpha virt. eigenvalues --    1.47663   1.49085   1.49085   1.58265   1.58277
 Alpha virt. eigenvalues --    1.59356   1.59528   1.60391   1.60876   1.61417
 Alpha virt. eigenvalues --    1.61961   1.62907   1.62917   1.63141   1.63173
 Alpha virt. eigenvalues --    1.63553   1.63978   1.64395   1.64750   1.65139
 Alpha virt. eigenvalues --    1.65683   1.66270   1.67118   1.67225   1.67991
 Alpha virt. eigenvalues --    1.69182   1.70207   1.71286   1.72420   1.73084
 Alpha virt. eigenvalues --    1.73605   1.74139   1.74139   1.74299   1.74739
 Alpha virt. eigenvalues --    1.75374   1.75530   1.76295   1.76934   1.77523
 Alpha virt. eigenvalues --    1.77527   1.78221   1.78653   1.78756   1.79704
 Alpha virt. eigenvalues --    1.80148   1.80983   1.83182   1.83360   1.85924
 Alpha virt. eigenvalues --    1.85943   1.86934   1.87265   1.87750   1.88151
 Alpha virt. eigenvalues --    1.88299   1.88401   1.88531   1.88577   1.88753
 Alpha virt. eigenvalues --    1.88888   1.89001   1.89100   1.89212   1.89427
 Alpha virt. eigenvalues --    1.89514   1.89952   1.89987   1.90476   1.90848
 Alpha virt. eigenvalues --    1.91069   1.91069   1.92856   1.92896   1.97551
 Alpha virt. eigenvalues --    1.99008   2.00436   2.01728   2.01977   2.02497
 Alpha virt. eigenvalues --    2.02628   2.02969   2.03160   2.03263   2.03829
 Alpha virt. eigenvalues --    2.04490   2.04546   2.04944   2.06164   2.07511
 Alpha virt. eigenvalues --    2.08749   2.09890   2.11278   2.12812   2.12814
 Alpha virt. eigenvalues --    2.12981   2.13437   2.13510   2.13919   2.14229
 Alpha virt. eigenvalues --    2.14563   2.14580   2.15031   2.15361   2.15567
 Alpha virt. eigenvalues --    2.16362   2.16404   2.16424   2.16527   2.16562
 Alpha virt. eigenvalues --    2.17193   2.17972   2.18326   2.19607   2.20097
 Alpha virt. eigenvalues --    2.20098   2.20157   2.20189   2.20370   2.21227
 Alpha virt. eigenvalues --    2.21719   2.21869   2.23278   2.23540   2.24486
 Alpha virt. eigenvalues --    2.24587   2.25374   2.26214   2.26499   2.26919
 Alpha virt. eigenvalues --    2.27435   2.27453   2.28136   2.28230   2.28522
 Alpha virt. eigenvalues --    2.29129   2.29480   2.30431   2.31386   2.32325
 Alpha virt. eigenvalues --    2.32534   2.33187   2.33907   2.34459   2.34639
 Alpha virt. eigenvalues --    2.35452   2.35454   2.35736   2.38718   2.40844
 Alpha virt. eigenvalues --    2.41108   2.41432   2.41466   2.41765   2.42061
 Alpha virt. eigenvalues --    2.42211   2.42326   2.42456   2.42901   2.42919
 Alpha virt. eigenvalues --    2.43939   2.44019   2.44019   2.46032   2.47517
 Alpha virt. eigenvalues --    2.48174   2.48251   2.49692   2.49697   2.57406
 Alpha virt. eigenvalues --    2.57408   2.62043   2.62064   2.63873   2.63874
 Alpha virt. eigenvalues --    2.65629   2.65789   2.66546   2.68074   2.70340
 Alpha virt. eigenvalues --    2.72410   2.75202   2.75403   2.82863   2.83310
 Alpha virt. eigenvalues --    2.83623   2.84034   2.84652   2.85493   2.86116
 Alpha virt. eigenvalues --    2.86311   2.86975   2.87524   2.88086   2.88524
 Alpha virt. eigenvalues --    2.88678   2.89533   2.91412   2.93252   2.94886
 Alpha virt. eigenvalues --    2.95916   2.96265   2.96457   2.97043   2.97442
 Alpha virt. eigenvalues --    2.99952   3.00518   3.01157   3.01554   3.01878
 Alpha virt. eigenvalues --    3.03252   3.05426   3.07529   3.09497   3.11269
 Alpha virt. eigenvalues --    3.12827   3.13434   3.86789   3.87483   3.87964
 Alpha virt. eigenvalues --    3.88037   3.88413   3.88435   3.88779   3.88781
 Alpha virt. eigenvalues --    3.89412   3.89413   3.89986   3.89986   4.00309
 Alpha virt. eigenvalues --    4.00732   4.01242   4.01737   4.02206   4.02730
 Alpha virt. eigenvalues --    4.03276   4.03360   4.03726   4.03730   4.03917
 Alpha virt. eigenvalues --    4.04120   4.04564   4.04624   4.04649   4.05075
 Alpha virt. eigenvalues --    4.05541   4.05811   4.05869   4.06370   4.07461
 Alpha virt. eigenvalues --    4.08728   4.10233   4.10690   4.17023   4.18535
 Alpha virt. eigenvalues --    4.20142   4.21934   4.23847   4.25792   4.27711
 Alpha virt. eigenvalues --    4.29565   4.31307   4.32873   4.33873   4.36525
 Alpha virt. eigenvalues --    4.36543   4.47166   4.47668   4.48056   4.48175
 Alpha virt. eigenvalues --    4.48586   4.48732   4.48893   4.49551   4.49561
 Alpha virt. eigenvalues --    4.49971   4.49972
  Beta  occ. eigenvalues --  -88.98928 -88.98928 -88.98776 -88.98776 -88.98463
  Beta  occ. eigenvalues --  -88.98463 -88.97962 -88.97962 -88.97272 -88.97272
  Beta  occ. eigenvalues --  -88.96449 -88.96449 -10.31680 -10.31680 -10.31674
  Beta  occ. eigenvalues --  -10.31631 -10.31548 -10.31548 -10.31467 -10.31467
  Beta  occ. eigenvalues --  -10.31242 -10.31242 -10.31107 -10.31107 -10.30724
  Beta  occ. eigenvalues --  -10.30724 -10.30543 -10.30543 -10.29927 -10.29927
  Beta  occ. eigenvalues --  -10.29755 -10.29755 -10.28711 -10.28711 -10.28142
  Beta  occ. eigenvalues --  -10.28142 -10.28068 -10.28068 -10.28030 -10.28030
  Beta  occ. eigenvalues --  -10.27863 -10.27863 -10.27749 -10.27749 -10.27468
  Beta  occ. eigenvalues --  -10.27468 -10.27289 -10.27289 -10.27265 -10.27265
  Beta  occ. eigenvalues --  -10.26865 -10.26865 -10.26518 -10.26518 -10.26014
  Beta  occ. eigenvalues --  -10.26014 -10.25363 -10.25363 -10.24956 -10.24956
  Beta  occ. eigenvalues --   -8.05033  -8.05032  -8.04881  -8.04881  -8.04567
  Beta  occ. eigenvalues --   -8.04567  -8.04068  -8.04068  -8.03378  -8.03378
  Beta  occ. eigenvalues --   -8.02563  -8.02563  -6.01474  -6.01472  -6.01320
  Beta  occ. eigenvalues --   -6.01320  -6.01100  -6.01099  -6.01007  -6.01007
  Beta  occ. eigenvalues --   -6.00947  -6.00947  -6.00670  -6.00670  -6.00634
  Beta  occ. eigenvalues --   -6.00634  -6.00518  -6.00518  -6.00506  -6.00506
  Beta  occ. eigenvalues --   -6.00206  -6.00206  -6.00133  -6.00133  -5.99814
  Beta  occ. eigenvalues --   -5.99814  -5.99707  -5.99707  -5.99441  -5.99441
  Beta  occ. eigenvalues --   -5.99022  -5.99022  -5.98979  -5.98979  -5.98603
  Beta  occ. eigenvalues --   -5.98603  -5.98247  -5.98247  -0.98368  -0.97911
  Beta  occ. eigenvalues --   -0.97446  -0.96975  -0.96496  -0.96003  -0.95490
  Beta  occ. eigenvalues --   -0.94971  -0.94398  -0.94129  -0.92884  -0.92872
  Beta  occ. eigenvalues --   -0.87736  -0.86706  -0.85687  -0.84680  -0.83728
  Beta  occ. eigenvalues --   -0.82924  -0.82903  -0.82404  -0.82224  -0.81840
  Beta  occ. eigenvalues --   -0.81648  -0.81350  -0.81196  -0.80580  -0.80564
  Beta  occ. eigenvalues --   -0.80455  -0.79571  -0.79030  -0.78798  -0.78103
  Beta  occ. eigenvalues --   -0.76993  -0.75968  -0.74814  -0.74645  -0.70733
  Beta  occ. eigenvalues --   -0.70023  -0.69270  -0.68498  -0.67704  -0.66890
  Beta  occ. eigenvalues --   -0.66064  -0.65240  -0.64439  -0.63616  -0.63151
  Beta  occ. eigenvalues --   -0.61849  -0.61563  -0.61403  -0.61032  -0.60994
  Beta  occ. eigenvalues --   -0.60620  -0.60580  -0.60373  -0.60315  -0.60180
  Beta  occ. eigenvalues --   -0.59699  -0.59523  -0.59109  -0.59058  -0.58730
  Beta  occ. eigenvalues --   -0.58117  -0.57592  -0.56523  -0.55138  -0.53863
  Beta  occ. eigenvalues --   -0.53034  -0.52598  -0.52557  -0.51523  -0.51519
  Beta  occ. eigenvalues --   -0.50034  -0.50033  -0.49293  -0.49237  -0.49221
  Beta  occ. eigenvalues --   -0.48768  -0.48711  -0.48662  -0.48289  -0.48226
  Beta  occ. eigenvalues --   -0.48187  -0.47649  -0.47610  -0.47610  -0.47084
  Beta  occ. eigenvalues --   -0.46948  -0.46931  -0.46569  -0.46513  -0.46474
  Beta  occ. eigenvalues --   -0.46414  -0.46147  -0.45947  -0.45803  -0.45746
  Beta  occ. eigenvalues --   -0.45363  -0.45279  -0.45239  -0.45062  -0.44795
  Beta  occ. eigenvalues --   -0.44411  -0.44253  -0.44014  -0.43482  -0.43369
  Beta  occ. eigenvalues --   -0.42948  -0.42561  -0.42283  -0.42152  -0.42059
  Beta  occ. eigenvalues --   -0.41783  -0.41487  -0.41310  -0.41014  -0.40999
  Beta  occ. eigenvalues --   -0.40373  -0.40373  -0.39370  -0.39370  -0.38918
  Beta  occ. eigenvalues --   -0.37521  -0.36152  -0.34759  -0.34186  -0.33925
  Beta  occ. eigenvalues --   -0.33603  -0.33471  -0.33152  -0.33115  -0.32910
  Beta  occ. eigenvalues --   -0.32622  -0.32563  -0.31884  -0.31867  -0.31525
  Beta  occ. eigenvalues --   -0.30670  -0.30669  -0.29943  -0.28292  -0.26620
  Beta  occ. eigenvalues --   -0.24965  -0.23315
  Beta virt. eigenvalues --   -0.21749  -0.16301  -0.14734  -0.13307  -0.11934
  Beta virt. eigenvalues --   -0.10588  -0.09263  -0.07959  -0.06680  -0.06336
  Beta virt. eigenvalues --   -0.06334  -0.05832  -0.05821  -0.05471  -0.05429
  Beta virt. eigenvalues --   -0.05396  -0.05004  -0.04908  -0.04237  -0.04207
  Beta virt. eigenvalues --   -0.04184  -0.03134  -0.03085  -0.02926  -0.02503
  Beta virt. eigenvalues --   -0.01512  -0.01337  -0.00979  -0.00162   0.00005
  Beta virt. eigenvalues --    0.00891   0.00962   0.01286   0.01462   0.01737
  Beta virt. eigenvalues --    0.01739   0.01792   0.02324   0.02416   0.02437
  Beta virt. eigenvalues --    0.02628   0.02822   0.02878   0.03437   0.03439
  Beta virt. eigenvalues --    0.03927   0.03932   0.04313   0.04313   0.05429
  Beta virt. eigenvalues --    0.05666   0.05913   0.06319   0.06482   0.06511
  Beta virt. eigenvalues --    0.07064   0.07966   0.08927   0.09867   0.10183
  Beta virt. eigenvalues --    0.10356   0.10721   0.11082   0.11473   0.11537
  Beta virt. eigenvalues --    0.11844   0.12151   0.12638   0.12794   0.12881
  Beta virt. eigenvalues --    0.13414   0.13508   0.13660   0.14125   0.14336
  Beta virt. eigenvalues --    0.14485   0.14496   0.14728   0.15318   0.15821
  Beta virt. eigenvalues --    0.16420   0.17261   0.17326   0.17786   0.17852
  Beta virt. eigenvalues --    0.18062   0.18234   0.18486   0.18628   0.18720
  Beta virt. eigenvalues --    0.19014   0.19062   0.19379   0.19714   0.19875
  Beta virt. eigenvalues --    0.19974   0.20423   0.20887   0.21163   0.21338
  Beta virt. eigenvalues --    0.21671   0.21941   0.22258   0.22434   0.22666
  Beta virt. eigenvalues --    0.22982   0.23555   0.23595   0.24724   0.24724
  Beta virt. eigenvalues --    0.27824   0.27876   0.28374   0.28507   0.28522
  Beta virt. eigenvalues --    0.28583   0.28601   0.28715   0.28832   0.28849
  Beta virt. eigenvalues --    0.29130   0.29131   0.29158   0.29554   0.29601
  Beta virt. eigenvalues --    0.29601   0.30027   0.30154   0.30254   0.30254
  Beta virt. eigenvalues --    0.30489   0.30698   0.30701   0.31363   0.31363
  Beta virt. eigenvalues --    0.31473   0.31796   0.31898   0.32408   0.32476
  Beta virt. eigenvalues --    0.32947   0.33982   0.34792   0.35403   0.35536
  Beta virt. eigenvalues --    0.36382   0.36395   0.38187   0.38244   0.38266
  Beta virt. eigenvalues --    0.38999   0.39006   0.39075   0.39297   0.39671
  Beta virt. eigenvalues --    0.39841   0.40181   0.40239   0.40873   0.41428
  Beta virt. eigenvalues --    0.41555   0.41953   0.42386   0.42434   0.42848
  Beta virt. eigenvalues --    0.43047   0.43386   0.43455   0.44406   0.44416
  Beta virt. eigenvalues --    0.44934   0.44944   0.45372   0.45388   0.45931
  Beta virt. eigenvalues --    0.46038   0.46516   0.46772   0.47281   0.47503
  Beta virt. eigenvalues --    0.47559   0.48084   0.48139   0.48571   0.48731
  Beta virt. eigenvalues --    0.48838   0.49492   0.49576   0.49616   0.49751
  Beta virt. eigenvalues --    0.49992   0.50221   0.50444   0.50905   0.50935
  Beta virt. eigenvalues --    0.51054   0.51515   0.51549   0.51668   0.51831
  Beta virt. eigenvalues --    0.52033   0.52184   0.52312   0.52335   0.52621
  Beta virt. eigenvalues --    0.52625   0.52928   0.53175   0.53176   0.53358
  Beta virt. eigenvalues --    0.53358   0.53464   0.53882   0.54172   0.54172
  Beta virt. eigenvalues --    0.54511   0.54929   0.55243   0.55351   0.55496
  Beta virt. eigenvalues --    0.55496   0.55541   0.55856   0.56028   0.56266
  Beta virt. eigenvalues --    0.56896   0.56993   0.57229   0.57952   0.58274
  Beta virt. eigenvalues --    0.59458   0.59460   0.60901   0.60908   0.61300
  Beta virt. eigenvalues --    0.61305   0.61391   0.61412   0.61461   0.61690
  Beta virt. eigenvalues --    0.61701   0.62129   0.62137   0.62487   0.62903
  Beta virt. eigenvalues --    0.62903   0.63604   0.64829   0.66144   0.67489
  Beta virt. eigenvalues --    0.68201   0.68734   0.68998   0.69690   0.69789
  Beta virt. eigenvalues --    0.70372   0.70522   0.70941   0.71223   0.71389
  Beta virt. eigenvalues --    0.71512   0.71525   0.71750   0.71937   0.72055
  Beta virt. eigenvalues --    0.72390   0.72432   0.72444   0.72740   0.72853
  Beta virt. eigenvalues --    0.73028   0.73074   0.73327   0.73544   0.73820
  Beta virt. eigenvalues --    0.74264   0.74432   0.74712   0.74972   0.75161
  Beta virt. eigenvalues --    0.75477   0.75545   0.75551   0.75876   0.76119
  Beta virt. eigenvalues --    0.76244   0.76373   0.76573   0.76707   0.76960
  Beta virt. eigenvalues --    0.77024   0.77213   0.77399   0.77590   0.77661
  Beta virt. eigenvalues --    0.77783   0.77954   0.78388   0.78494   0.78680
  Beta virt. eigenvalues --    0.79257   0.79808   0.80244   0.80264   0.80586
  Beta virt. eigenvalues --    0.81065   0.81484   0.81710   0.82041   0.82160
  Beta virt. eigenvalues --    0.82555   0.82637   0.82795   0.82901   0.83408
  Beta virt. eigenvalues --    0.83427   0.83705   0.84159   0.84290   0.84546
  Beta virt. eigenvalues --    0.84829   0.85156   0.85354   0.85528   0.85851
  Beta virt. eigenvalues --    0.86022   0.86545   0.86702   0.86732   0.86874
  Beta virt. eigenvalues --    0.87169   0.87437   0.87466   0.87690   0.88445
  Beta virt. eigenvalues --    0.88822   0.88842   0.89026   0.89857   0.89863
  Beta virt. eigenvalues --    0.89871   0.89927   0.91923   0.92043   0.92368
  Beta virt. eigenvalues --    0.92628   0.92957   0.93569   0.94387   0.94670
  Beta virt. eigenvalues --    0.95057   0.95104   0.95355   0.95491   0.95722
  Beta virt. eigenvalues --    0.95961   0.96441   0.96504   0.96766   0.97112
  Beta virt. eigenvalues --    0.97134   0.97449   0.97817   0.97861   0.98064
  Beta virt. eigenvalues --    0.98198   0.98395   0.98577   0.98678   0.98790
  Beta virt. eigenvalues --    0.99020   0.99296   0.99346   1.00023   1.00027
  Beta virt. eigenvalues --    1.00210   1.00216   1.03171   1.03524   1.04017
  Beta virt. eigenvalues --    1.04568   1.04668   1.04835   1.05850   1.07170
  Beta virt. eigenvalues --    1.08358   1.08487   1.09216   1.09571   1.09654
  Beta virt. eigenvalues --    1.09818   1.10298   1.10707   1.11031   1.11510
  Beta virt. eigenvalues --    1.12081   1.12713   1.13391   1.14129   1.14994
  Beta virt. eigenvalues --    1.16121   1.16659   1.18843   1.19204   1.19258
  Beta virt. eigenvalues --    1.19914   1.20052   1.20730   1.20899   1.21756
  Beta virt. eigenvalues --    1.21758   1.22648   1.23002   1.23573   1.24415
  Beta virt. eigenvalues --    1.24515   1.25442   1.25852   1.26290   1.27007
  Beta virt. eigenvalues --    1.27211   1.27321   1.27460   1.28734   1.28743
  Beta virt. eigenvalues --    1.29333   1.29391   1.29980   1.30151   1.30332
  Beta virt. eigenvalues --    1.30606   1.30696   1.31090   1.31323   1.31485
  Beta virt. eigenvalues --    1.31487   1.31830   1.31909   1.32126   1.32409
  Beta virt. eigenvalues --    1.32426   1.32504   1.33037   1.33038   1.33878
  Beta virt. eigenvalues --    1.34222   1.34222   1.35013   1.38974   1.39829
  Beta virt. eigenvalues --    1.39829   1.40333   1.41446   1.42297   1.42791
  Beta virt. eigenvalues --    1.42865   1.43099   1.43545   1.43573   1.44052
  Beta virt. eigenvalues --    1.44053   1.44179   1.44666   1.45106   1.45458
  Beta virt. eigenvalues --    1.45551   1.45868   1.45887   1.46550   1.46551
  Beta virt. eigenvalues --    1.47779   1.47779   1.49127   1.49127   1.58372
  Beta virt. eigenvalues --    1.58382   1.59447   1.59625   1.60471   1.60966
  Beta virt. eigenvalues --    1.61501   1.62043   1.62982   1.63170   1.63225
  Beta virt. eigenvalues --    1.63413   1.63779   1.64187   1.64580   1.64913
  Beta virt. eigenvalues --    1.65300   1.65852   1.66448   1.67277   1.67390
  Beta virt. eigenvalues --    1.68044   1.69217   1.70235   1.71311   1.72446
  Beta virt. eigenvalues --    1.73143   1.73633   1.74331   1.74331   1.74355
  Beta virt. eigenvalues --    1.74780   1.75423   1.75725   1.76346   1.76992
  Beta virt. eigenvalues --    1.77575   1.77688   1.78288   1.78719   1.78820
  Beta virt. eigenvalues --    1.79873   1.80242   1.81129   1.83276   1.83457
  Beta virt. eigenvalues --    1.85949   1.85968   1.87161   1.87346   1.87958
  Beta virt. eigenvalues --    1.88251   1.88385   1.88620   1.88623   1.88730
  Beta virt. eigenvalues --    1.88889   1.88997   1.89217   1.89224   1.89411
  Beta virt. eigenvalues --    1.89575   1.89639   1.90130   1.90169   1.90539
  Beta virt. eigenvalues --    1.90917   1.91196   1.91197   1.92906   1.92946
  Beta virt. eigenvalues --    1.97638   1.99099   2.00535   2.01843   2.02163
  Beta virt. eigenvalues --    2.02668   2.02778   2.03207   2.03297   2.03412
  Beta virt. eigenvalues --    2.04052   2.04593   2.04625   2.05102   2.06313
  Beta virt. eigenvalues --    2.07647   2.08867   2.09974   2.11340   2.13042
  Beta virt. eigenvalues --    2.13043   2.13053   2.13657   2.13724   2.14126
  Beta virt. eigenvalues --    2.14419   2.14668   2.14759   2.15201   2.15563
  Beta virt. eigenvalues --    2.15693   2.16489   2.16529   2.16557   2.16673
  Beta virt. eigenvalues --    2.16715   2.17323   2.18079   2.18439   2.19719
  Beta virt. eigenvalues --    2.20190   2.20190   2.20292   2.20331   2.20552
  Beta virt. eigenvalues --    2.21380   2.21853   2.22013   2.23427   2.23652
  Beta virt. eigenvalues --    2.24641   2.24680   2.25531   2.26364   2.26625
  Beta virt. eigenvalues --    2.27068   2.27563   2.27596   2.28238   2.28331
  Beta virt. eigenvalues --    2.28739   2.29224   2.29676   2.30615   2.31567
  Beta virt. eigenvalues --    2.32509   2.32616   2.33378   2.34109   2.34669
  Beta virt. eigenvalues --    2.34872   2.35634   2.35636   2.35817   2.38801
  Beta virt. eigenvalues --    2.41102   2.41360   2.41550   2.41676   2.42000
  Beta virt. eigenvalues --    2.42258   2.42361   2.42488   2.42675   2.43104
  Beta virt. eigenvalues --    2.43129   2.44022   2.44178   2.44178   2.46111
  Beta virt. eigenvalues --    2.47595   2.48262   2.48330   2.49743   2.49748
[...]
 
              Baa    -0.0028    -0.381    -0.136    -0.127  0.5685  0.8227 -0.0002
    72 C(13)  Bbb     0.0004     0.057     0.020     0.019  0.8227 -0.5685 -0.0007
              Bcc     0.0024     0.324     0.116     0.108  0.0007 -0.0002  1.0000
 
              Baa    -0.0197    -2.647    -0.945    -0.883  0.9027 -0.4303  0.0000
    73 C(13)  Bbb    -0.0196    -2.630    -0.938    -0.877  0.4303  0.9027  0.0000
              Bcc     0.0393     5.277     1.883     1.760  0.0000  0.0000  1.0000
 
              Baa    -0.0116    -0.477    -0.170    -0.159  0.0000  0.0000  1.0000
    74 S(33)  Bbb     0.0017     0.069     0.024     0.023  0.7460 -0.6659  0.0000
              Bcc     0.0100     0.409     0.146     0.136  0.6659  0.7460 -0.0001
 
              Baa    -0.0005    -0.064    -0.023    -0.021 -0.7066  0.7076  0.0007
    75 C(13)  Bbb    -0.0004    -0.055    -0.020    -0.018  0.0005 -0.0004  1.0000
              Bcc     0.0009     0.119     0.042     0.040  0.7076  0.7066  0.0000
 
              Baa    -0.0023    -1.229    -0.438    -0.410  0.8935 -0.4490  0.0000
    76 H(1)   Bbb    -0.0007    -0.392    -0.140    -0.131  0.0000  0.0000  1.0000
              Bcc     0.0030     1.620     0.578     0.540  0.4490  0.8935  0.0000
 
              Baa    -0.0272    -3.652    -1.303    -1.218 -0.6129  0.7901  0.0000
    77 C(13)  Bbb    -0.0268    -3.598    -1.284    -1.200  0.7901  0.6129  0.0000
              Bcc     0.0540     7.250     2.587     2.419 -0.0001  0.0000  1.0000
 
              Baa    -0.0008    -0.431    -0.154    -0.144  0.0000  0.0000  1.0000
    78 H(1)   Bbb    -0.0003    -0.152    -0.054    -0.051  0.9834  0.1813  0.0000
              Bcc     0.0011     0.583     0.208     0.194 -0.1813  0.9834  0.0000
 
              Baa    -0.0064    -0.858    -0.306    -0.286  0.0000  0.0000  1.0000
    79 C(13)  Bbb     0.0019     0.251     0.090     0.084 -0.5035  0.8640  0.0000
              Bcc     0.0045     0.607     0.217     0.203  0.8640  0.5035  0.0000
 
              Baa    -0.0139    -1.861    -0.664    -0.621  0.1769  0.9842  0.0000
    80 C(13)  Bbb    -0.0138    -1.848    -0.659    -0.616  0.9842 -0.1769  0.0000
              Bcc     0.0276     3.709     1.323     1.237  0.0000  0.0000  1.0000
 
              Baa    -0.0101    -0.414    -0.148    -0.138  0.6883  0.7255  0.0000
    81 S(33)  Bbb    -0.0041    -0.170    -0.061    -0.057  0.7255 -0.6883  0.0000
              Bcc     0.0142     0.584     0.208     0.195  0.0000  0.0000  1.0000
 
              Baa    -0.0058    -0.774    -0.276    -0.258  0.0000  0.0000  1.0000
    82 C(13)  Bbb     0.0024     0.326     0.116     0.109  0.6853  0.7283  0.0000
              Bcc     0.0033     0.448     0.160     0.150  0.7283 -0.6853  0.0000
 
              Baa    -0.0015    -0.789    -0.281    -0.263  0.8891  0.4577  0.0000
    83 H(1)   Bbb    -0.0005    -0.256    -0.091    -0.085  0.0000  0.0000  1.0000
              Bcc     0.0020     1.045     0.373     0.349 -0.4577  0.8891  0.0000
 
              Baa    -0.0171    -2.299    -0.820    -0.767  0.0302  0.9995  0.0000
    84 C(13)  Bbb    -0.0164    -2.203    -0.786    -0.735  0.9995 -0.0302  0.0000
              Bcc     0.0336     4.502     1.607     1.502  0.0000  0.0000  1.0000
 
              Baa    -0.0005    -0.253    -0.090    -0.084  0.0000  0.0000  1.0000
    85 H(1)   Bbb     0.0000     0.025     0.009     0.008  0.9831  0.1829  0.0000
              Bcc     0.0004     0.228     0.081     0.076 -0.1829  0.9831  0.0000
 
              Baa    -0.0022    -1.183    -0.422    -0.395  0.2898  0.9571  0.0000
    86 H(1)   Bbb    -0.0004    -0.199    -0.071    -0.066  0.0000  0.0000  1.0000
              Bcc     0.0026     1.382     0.493     0.461  0.9571 -0.2898  0.0000
 

 ---------------------------------------------------------------------------------

 No NMR shielding tensors so no spin-rotation constants.
 Leave Link  601 at Sun Jul 24 23:28:51 2011, MaxMem= 1441792000 cpu:      18.8
 (Enter /apps/gaussian/g09/g09/l602.exe)
 Breneman (CHELPG) radii used.
 Generate Potential Derived Charges using the Breneman model, NDens= 1.
 Grid spacing= 0.300 Box extension= 2.800
 NStep X,Y,Z=  179     36     20   Total possible points=      128880
 Number of Points to Fit=   51052

 **********************************************************************

            Electrostatic Properties Using The SCF Density

 **********************************************************************

       Atomic Center    1 is at   3.219519 -0.185205  0.000399
       Atomic Center    2 is at   2.652599 -1.459164  0.000424
       Atomic Center    3 is at   1.253261 -1.457390  0.000480
       Atomic Center    4 is at   0.689326 -0.182358  0.000499
       Atomic Center    5 is at   1.956058  1.038331  0.000562
       Atomic Center    6 is at   3.247767 -2.365887  0.000359
       Atomic Center    7 is at   0.656122 -2.362894  0.000464
       Atomic Center    8 is at   4.599283  0.175906  0.000288
       Atomic Center    9 is at   5.167227  1.448620  0.000197
       Atomic Center   10 is at   5.862506 -1.048938  0.000248
       Atomic Center   11 is at   6.566912  1.446117  0.000090
       Atomic Center   12 is at   4.573173  2.356229  0.000197
       Atomic Center   13 is at   7.129501  0.170312  0.000098
       Atomic Center   14 is at   7.165148  2.350747  0.000000
       Atomic Center   15 is at   8.508563 -0.195800  0.000003
       Atomic Center   16 is at   9.072346 -1.469319 -0.000055
       Atomic Center   17 is at   9.776020  1.025266 -0.000075
       Atomic Center   18 is at  10.472884 -1.471165 -0.000141
       Atomic Center   19 is at   8.475881 -2.375433 -0.000036
       Atomic Center   20 is at  11.038720 -0.197489 -0.000151
       Atomic Center   21 is at  11.068557 -2.377401 -0.000193
       Atomic Center   22 is at  12.420396  0.164923 -0.000223
       Atomic Center   23 is at  12.989508  1.434085 -0.000282
       Atomic Center   24 is at  13.682398 -1.062037 -0.000301
       Atomic Center   25 is at  14.392084  1.428920 -0.000279
       Atomic Center   26 is at  12.397974  2.343518 -0.000284
       Atomic Center   27 is at  14.950129  0.153804 -0.000225
       Atomic Center   28 is at  14.992334  2.332076 -0.000277
       Atomic Center   29 is at  16.332642 -0.219173 -0.000152
       Atomic Center   30 is at  16.892832 -1.488698 -0.000108
       Atomic Center   31 is at  17.601719  0.999792 -0.000066
       Atomic Center   32 is at  18.299405 -1.490099 -0.000097
       Atomic Center   33 is at  16.297496 -2.395720 -0.000123
       Atomic Center   34 is at  18.860947 -0.221397 -0.000133
       Atomic Center   35 is at  18.895034 -2.396315 -0.000103
       Atomic Center   36 is at  20.253358  0.149191 -0.000187
       Atomic Center   37 is at  20.816699  1.412328 -0.000233
       Atomic Center   38 is at  21.514697 -1.075373 -0.000208
       Atomic Center   39 is at  22.235614  1.400109 -0.000267
       Atomic Center   40 is at  20.226580  2.322833 -0.000236
       Atomic Center   41 is at  22.754909  0.131842 -0.000242
       Atomic Center   42 is at  22.846857  2.295422 -0.000299
       Atomic Center   43 is at  23.794534 -0.167092 -0.000250
       Atomic Center   44 is at  -0.689326  0.182358  0.000499
       Atomic Center   45 is at  -1.253261  1.457390  0.000481
       Atomic Center   46 is at  -1.956058 -1.038331  0.000561
       Atomic Center   47 is at  -2.652598  1.459164  0.000424
       Atomic Center   48 is at  -0.656122  2.362894  0.000465
       Atomic Center   49 is at  -3.219519  0.185205  0.000398
       Atomic Center   50 is at  -3.247767  2.365887  0.000360
       Atomic Center   51 is at  -4.599283 -0.175906  0.000288
       Atomic Center   52 is at  -5.167227 -1.448620  0.000196
       Atomic Center   53 is at  -5.862506  1.048938  0.000248
       Atomic Center   54 is at  -6.566912 -1.446117  0.000088
       Atomic Center   55 is at  -4.573173 -2.356229  0.000196
       Atomic Center   56 is at  -7.129501 -0.170312  0.000097
       Atomic Center   57 is at  -7.165148 -2.350747 -0.000002
       Atomic Center   58 is at  -8.508563  0.195800  0.000002
       Atomic Center   59 is at  -9.072346  1.469319 -0.000055
       Atomic Center   60 is at  -9.776020 -1.025266 -0.000076
       Atomic Center   61 is at -10.472884  1.471165 -0.000141
       Atomic Center   62 is at  -8.475881  2.375433 -0.000035
       Atomic Center   63 is at -11.038720  0.197489 -0.000151
       Atomic Center   64 is at -11.068557  2.377401 -0.000192
       Atomic Center   65 is at -12.420396 -0.164923 -0.000224
       Atomic Center   66 is at -12.989508 -1.434085 -0.000283
       Atomic Center   67 is at -13.682398  1.062037 -0.000300
       Atomic Center   68 is at -14.392084 -1.428920 -0.000280
       Atomic Center   69 is at -12.397974 -2.343518 -0.000286
       Atomic Center   70 is at -14.950129 -0.153804 -0.000225
       Atomic Center   71 is at -14.992334 -2.332076 -0.000279
       Atomic Center   72 is at -16.332642  0.219173 -0.000152
       Atomic Center   73 is at -16.892832  1.488698 -0.000107
       Atomic Center   74 is at -17.601719 -0.999792 -0.000066
       Atomic Center   75 is at -18.299405  1.490099 -0.000096
       Atomic Center   76 is at -16.297496  2.395720 -0.000122
       Atomic Center   77 is at -18.860947  0.221397 -0.000133
       Atomic Center   78 is at -18.895034  2.396315 -0.000101
       Atomic Center   79 is at -20.253358 -0.149191 -0.000186
       Atomic Center   80 is at -20.816699 -1.412328 -0.000234
       Atomic Center   81 is at -21.514697  1.075373 -0.000207
       Atomic Center   82 is at -22.235614 -1.400109 -0.000267
       Atomic Center   83 is at -20.226580 -2.322833 -0.000237
       Atomic Center   84 is at -22.754909 -0.131842 -0.000241
       Atomic Center   85 is at -22.846857 -2.295422 -0.000299
       Atomic Center   86 is at -23.794534  0.167092 -0.000248
   51052 points will be used for fitting atomic charges
 Fitting point charges to electrostatic potential
 Charges from ESP fit, RMS=   0.00441 RRMS=   0.08047:
 Charge=   1.00000 Dipole=     0.0000     0.0000    -0.0006 Tot=     0.0006
              1
     1  C    0.096976
     2  C   -0.149777
     3  C   -0.145610
     4  C    0.092405
     5  S   -0.124494
     6  H    0.162784
     7  H    0.161018
     8  C    0.091008
     9  C   -0.144795
    10  S   -0.128298
    11  C   -0.155649
    12  H    0.161026
    13  C    0.102346
    14  H    0.163504
    15  C    0.092124
    16  C   -0.149824
    17  S   -0.130753
    18  C   -0.161006
    19  H    0.162632
    20  C    0.115922
    21  H    0.165363
    22  C    0.077970
    23  C   -0.147075
    24  S   -0.137516
    25  C   -0.174944
    26  H    0.163407
    27  C    0.135058
    28  H    0.167458
    29  C    0.060712
    30  C   -0.139016
    31  S   -0.133825
    32  C   -0.159782
    33  H    0.163157
    34  C    0.137352
    35  H    0.141948
    36  C   -0.019064
    37  C   -0.053202
    38  S   -0.032184
    39  C   -0.164600
    40  H    0.137608
    41  C   -0.081967
    42  H    0.122140
    43  H    0.159464
    44  C    0.092405
    45  C   -0.145610
    46  S   -0.124493
    47  C   -0.149777
    48  H    0.161018
    49  C    0.096976
    50  H    0.162784
    51  C    0.091008
    52  C   -0.144795
    53  S   -0.128298
    54  C   -0.155649
    55  H    0.161026
    56  C    0.102346
    57  H    0.163504
    58  C    0.092124
    59  C   -0.149824
    60  S   -0.130753
    61  C   -0.161006
    62  H    0.162632
    63  C    0.115922
    64  H    0.165363
    65  C    0.077970
    66  C   -0.147075
    67  S   -0.137516
    68  C   -0.174944
    69  H    0.163407
    70  C    0.135058
    71  H    0.167458
    72  C    0.060712
    73  C   -0.139016
    74  S   -0.133825
    75  C   -0.159782
    76  H    0.163157
    77  C    0.137352
    78  H    0.141948
    79  C   -0.019064
    80  C   -0.053202
    81  S   -0.032184
    82  C   -0.164600
    83  H    0.137608
    84  C   -0.081967
    85  H    0.122140
    86  H    0.159464
 -----------------------------------------------------------------

              Electrostatic Properties (Atomic Units)

 -----------------------------------------------------------------
    Center     Electric         -------- Electric Field --------
               Potential          X             Y             Z
 -----------------------------------------------------------------
    1 Atom    -14.610424
    2 Atom    -14.647117
    3 Atom    -14.646616
    4 Atom    -14.610643
    5 Atom    -59.078723
    6 Atom     -1.011059
    7 Atom     -1.010625
    8 Atom    -14.612447
    9 Atom    -14.647674
   10 Atom    -59.080244
   11 Atom    -14.649222
   12 Atom     -1.011705
   13 Atom    -14.611763
   14 Atom     -1.013040
   15 Atom    -14.616026
   16 Atom    -14.650474
   17 Atom    -59.083363
   18 Atom    -14.653187
   19 Atom     -1.014433
   20 Atom    -14.614847
   21 Atom     -1.016770
   22 Atom    -14.621653
   23 Atom    -14.655286
   24 Atom    -59.088352
   25 Atom    -14.659209
   26 Atom     -1.019067
   27 Atom    -14.620052
   28 Atom     -1.022453
   29 Atom    -14.629525
   30 Atom    -14.662723
   31 Atom    -59.095220
   32 Atom    -14.667741
   33 Atom     -1.026026
   34 Atom    -14.628051
   35 Atom     -1.030490
   36 Atom    -14.639813
   37 Atom    -14.674061
   38 Atom    -59.103458
   39 Atom    -14.678212
   40 Atom     -1.036385
   41 Atom    -14.655470
   42 Atom     -1.042855
   43 Atom     -1.025010
   44 Atom    -14.610643
   45 Atom    -14.646616
   46 Atom    -59.078723
   47 Atom    -14.647117
   48 Atom     -1.010625
   49 Atom    -14.610424
   50 Atom     -1.011059
   51 Atom    -14.612448
   52 Atom    -14.647674
   53 Atom    -59.080244
   54 Atom    -14.649222
   55 Atom     -1.011705
   56 Atom    -14.611763
   57 Atom     -1.013040
   58 Atom    -14.616026
   59 Atom    -14.650474
   60 Atom    -59.083363
   61 Atom    -14.653187
   62 Atom     -1.014433
   63 Atom    -14.614847
   64 Atom     -1.016770
   65 Atom    -14.621653
   66 Atom    -14.655286
   67 Atom    -59.088352
   68 Atom    -14.659209
   69 Atom     -1.019067
   70 Atom    -14.620052
   71 Atom     -1.022453
   72 Atom    -14.629525
   73 Atom    -14.662723
   74 Atom    -59.095220
   75 Atom    -14.667741
   76 Atom     -1.026026
   77 Atom    -14.628051
   78 Atom     -1.030490
   79 Atom    -14.639813
   80 Atom    -14.674061
   81 Atom    -59.103458
   82 Atom    -14.678212
   83 Atom     -1.036385
   84 Atom    -14.655470
   85 Atom     -1.042855
   86 Atom     -1.025010
 -----------------------------------------------------------------
 Leave Link  602 at Sun Jul 24 23:28:59 2011, MaxMem= 1441792000 cpu:      67.7
 (Enter /apps/gaussian/g09/g09/l9999.exe)
 1\1\GINC-CX1-14-36-1\SP\UB3LYP\6-31G(d)\C48H26S12(1+,2)\SPF310\24-Jul-
 2011\0\\#p sp B3LYP/6-31g* geom=allcheck guess=read pop=chelpg\\Title 
 Card Required\\1,2\C,0,3.2195994253,0.1838018852,-0.0051905828\C,0,2.6
 532340473,1.458007668,-0.0052158679\C,0,1.2538957812,1.4568436813,-0.0
 052725125\C,0,0.6894055558,0.1820576114,-0.0052912019\S,0,1.9556053867
 ,-1.0391832368,-0.005354304\H,0,3.248797594,2.3644717074,-0.0051507054
 \H,0,0.6571514103,2.3626083383,-0.0052563535\C,0,4.5992060497,-0.17790
 99678,-0.0050804232\C,0,5.1665952142,-1.4508710766,-0.0049889738\S,0,5
 .8629623435,1.0463833995,-0.0050401597\C,0,6.566281224,-1.4489786349,-
 0.0048815867\H,0,4.5721460863,-2.358221638,-0.0049895444\C,0,7.1294264
 207,-0.1734185634,-0.0048901745\H,0,7.1641234016,-2.3538684818,-0.0047
 920297\C,0,8.5086475304,0.1920927468,-0.0047949473\C,0,9.0729855064,1.
 4653662745,-0.0047369659\S,0,9.7755724702,-1.0295255759,-0.0047174023\
 C,0,10.4735240499,1.4666019367,-0.0046511175\H,0,8.4769149476,2.371739
 7648,-0.0047565172\C,0,11.0388053589,0.1926791141,-0.0046412672\H,0,11
 .0695922023,2.3725784944,-0.004599156\C,0,12.4203228454,-0.170334712,-
 0.0045688298\C,0,12.9888817998,-1.4397441751,-0.0045103385\S,0,13.6828
 593175,1.0560754713,-0.00449146\C,0,14.3914597659,-1.4351907874,-0.004
 5134497\H,0,12.3969516597,-2.3489198255,-0.0045084054\C,0,14.950060131
 2,-0.1603184673,-0.0045675571\H,0,14.9913164712,-2.338607926,-0.004515
 1928\C,0,16.3327356956,0.2120565492,-0.0046401296\C,0,16.8934794347,1.
 4813371439,-0.004683918\S,0,17.6012819462,-1.0074617463,-0.0047265182\
 C,0,18.300052824,1.482125619,-0.0046948794\H,0,16.2985380713,2.3886189
 017,-0.0046688251\C,0,18.861041373,0.2131789953,-0.0046589778\H,0,18.8
 960764709,2.3880820614,-0.0046890357\C,0,20.253290584,-0.1580153878,-0
 .0046053308\C,0,20.8160812585,-1.4213976178,-0.0045587043\S,0,21.51516
 35638,1.0659987326,-0.0045840296\C,0,22.2350020945,-1.4097969519,-0.00
 45246527\H,0,20.2255657262,-2.3316454774,-0.0045555698\C,0,22.75484964
 71,-0.1417563237,-0.0045499798\H,0,22.8458549666,-2.3053768035,-0.0044
 935412\H,0,23.7946045673,0.1567248054,-0.004542173\C,0,-0.6894055241,-
 0.1820576131,-0.0052912142\C,0,-1.2538957513,-1.4568436829,-0.00527314
 71\S,0,-1.9556053547,1.0391832366,-0.0053534705\C,0,-2.6532340192,-1.4
 580076685,-0.0052163733\H,0,-0.6571513817,-2.3626083409,-0.0052575496\
 C,0,-3.2195993965,-0.1838018833,-0.0051903627\H,0,-3.2487975685,-2.364
 4717079,-0.0051516623\C,0,-4.5992060231,0.1779099742,-0.0050799237\C,0
 ,-5.1665951903,1.4508710851,-0.0049877326\S,0,-5.8629623192,-1.0463833
 94,-0.0050402557\C,0,-6.566281205,1.4489786423,-0.0048802656\H,0,-4.57
 21460629,2.3582216488,-0.0049878332\C,0,-7.1294264021,0.1734185664,-0.
 0048895331\H,0,-7.1641233859,2.3538684902,-0.0047901716\C,0,-8.5086475
 156,-0.1920927528,-0.004794429\C,0,-9.0729854944,-1.4653662847,-0.0047
 371072\S,0,-9.7755724603,1.0295255697,-0.0047160932\C,0,-10.4735240449
 ,-1.4666019464,-0.0046512679\H,0,-8.4769149343,-2.3717397777,-0.004757
 1757\C,0,-11.0388053554,-0.1926791184,-0.0046407635\H,0,-11.0695922005
 ,-2.372578506,-0.0045998294\C,0,-12.4203228465,0.1703347189,-0.0045682
 181\C,0,-12.9888818029,1.4397441872,-0.0045090332\S,0,-13.6828593245,-
 1.056075463,-0.0044916132\C,0,-14.391459776,1.4351907998,-0.0045122695
 \H,0,-12.3969516604,2.3489198401,-0.0045065326\C,0,-14.9500601436,0.16
 0318475,-0.0045671716\H,0,-14.991316483,2.3386079412,-0.004513553\C,0,
 -16.3327357117,-0.2120565518,-0.0046400991\C,0,-16.8934794506,-1.48133
 71517,-0.0046846724\S,0,-17.6012819689,1.0074617407,-0.0047258615\C,0,
 -18.3000528451,-1.4821256288,-0.0046958533\H,0,-16.2985380832,-2.38861
 89105,-0.004670035\C,0,-18.8610413977,-0.2131790028,-0.004659339\H,0,-
 18.896076492,-2.3880820741,-0.0046906472\C,0,-20.2532906112,0.15801538
 49,-0.0046057669\C,0,-20.8160812864,1.4213976176,-0.0045584668\S,0,-21
 .5151635939,-1.065998735,-0.0045855027\C,0,-22.2350021249,1.4097969521
 ,-0.0045247344\H,0,-20.2255657522,2.3316454784,-0.0045546277\C,0,-22.7
 548496785,0.1417563224,-0.0045509744\H,0,-22.8458549974,2.3053768051,-
 0.0044931918\H,0,-23.7946045999,-0.1567248075,-0.0045435839\\Version=E
 M64L-G09RevA.02\State=2-A\HF=-6622.7740533\S2=0.765645\S2-1=0.\S2A=0.7
 50199\RMSD=3.103e-09\Dipole=0.0000003,0.,0.0001205\Quadrupole=474.7434
 632,-210.2810464,-264.4624168,-12.711908,0.0000014,0.0000152\PG=C01 [X
 (C48H26S12)]\\@


 IF I AM NOT FOR MYSELF, WHO WILL BE?
 BUT IF I AM ONLY FOR MYSELF, WHAT AM I?
 THOUGH A SEEKER SINCE MY BIRTH,
 HERE IS ALL I'VE LEARNED ON EARTH,
 THIS IS THE GIST OF WHAT I KNOW:
 GIVE ADVICE AND BUY A FOE.

 PRESSED FOR RULES AND VERITIES,
 ALL I RECOLLECT ARE THESE:
 FEED A COLD TO STARVE A FEVER,
 ARGUE WITH NO TRUE-BELIEVER.
 THINK-TOO-LONG IS NEVER-ACT,
 SCRATCH A MYTH AND FIND A FACT.

 STITCH IN TIME SAVES TWENTY STITCHES,
 GIVE THE RICH TO PLEASE THEM, RICHES.
 GIVE TO LOVE YOU HEARTH AND HALL,
 BUT DO NOT GIVE ADVICE AT ALL.

                                  -- HILLEL
 Job cpu time:  0 days  0 hours 16 minutes 28.0 seconds.
 File lengths (MBytes):  RWF=    922 Int=      0 D2E=      0 Chk=     75 Scr=      1
 Normal termination of Gaussian 09 at Sun Jul 24 23:28:59 2011.
