 Entering Gaussian System, Link 0=g03
 Input=P3HT_4_cation_B3LYP_631GSTAR_TDDFT.com
 Output=P3HT_4_cation_B3LYP_631GSTAR_TDDFT.log
 Initial command:
 /apps/gaussian/g09/g09/l1.exe /tmp/pbs.5444147.cx1/Gau-20161.inp -scrdir=/tmp/pbs.5444147.cx1/
 Entering Link 1 = /apps/gaussian/g09/g09/l1.exe PID=     20165.
  
 Copyright (c) 1988,1990,1992,1993,1995,1998,2003,2009, Gaussian, Inc.
                  All Rights Reserved.
  
 This is part of the Gaussian(R) 09 program.  It is based on
 the Gaussian(R) 03 system (copyright 2003, Gaussian, Inc.),
 the Gaussian(R) 98 system (copyright 1998, Gaussian, Inc.),
 the Gaussian(R) 94 system (copyright 1995, Gaussian, Inc.),
 the Gaussian 92(TM) system (copyright 1992, Gaussian, Inc.),
 the Gaussian 90(TM) system (copyright 1990, Gaussian, Inc.),
 the Gaussian 88(TM) system (copyright 1988, Gaussian, Inc.),
 the Gaussian 86(TM) system (copyright 1986, Carnegie Mellon
 University), and the Gaussian 82(TM) system (copyright 1983,
 Carnegie Mellon University). Gaussian is a federally registered
 trademark of Gaussian, Inc.
  
 This software contains proprietary and confidential information,
 including trade secrets, belonging to Gaussian, Inc.
  
 This software is provided under written license and may be
 used, copied, transmitted, or stored only in accord with that
 written license.
  
 The following legend is applicable only to US Government
 contracts under FAR:
  
                    RESTRICTED RIGHTS LEGEND
  
 Use, reproduction and disclosure by the US Government is
 subject to restrictions as set forth in subparagraphs (a)
 and (c) of the Commercial Computer Software - Restricted
 Rights clause in FAR 52.227-19.
  
 Gaussian, Inc.
 340 Quinnipiac St., Bldg. 40, Wallingford CT 06492
  
  
 ---------------------------------------------------------------
 Warning -- This program may not be used in any manner that
 competes with the business of Gaussian, Inc. or will provide
 assistance to any competitor of Gaussian, Inc.  The licensee
 of this program is prohibited from giving any competitor of
 Gaussian, Inc. access to this program.  By using this program,
 the user acknowledges that Gaussian, Inc. is engaged in the
 business of creating and licensing software in the field of
 computational chemistry and represents and warrants to the
 licensee that it is not a competitor of Gaussian, Inc. and that
 it will not use this program in any manner prohibited above.
 ---------------------------------------------------------------
  

 Cite this work as:
 Gaussian 09, Revision A.02,
 M. J. Frisch, G. W. Trucks, H. B. Schlegel, G. E. Scuseria, 
 M. A. Robb, J. R. Cheeseman, G. Scalmani, V. Barone, B. Mennucci, 
 G. A. Petersson, H. Nakatsuji, M. Caricato, X. Li, H. P. Hratchian, 
 A. F. Izmaylov, J. Bloino, G. Zheng, J. L. Sonnenberg, M. Hada, 
 M. Ehara, K. Toyota, R. Fukuda, J. Hasegawa, M. Ishida, T. Nakajima, 
 Y. Honda, O. Kitao, H. Nakai, T. Vreven, J. A. Montgomery, Jr., 
 J. E. Peralta, F. Ogliaro, M. Bearpark, J. J. Heyd, E. Brothers, 
 K. N. Kudin, V. N. Staroverov, R. Kobayashi, J. Normand, 
 K. Raghavachari, A. Rendell, J. C. Burant, S. S. Iyengar, J. Tomasi, 
 M. Cossi, N. Rega, J. M. Millam, M. Klene, J. E. Knox, J. B. Cross, 
 V. Bakken, C. Adamo, J. Jaramillo, R. Gomperts, R. E. Stratmann, 
 O. Yazyev, A. J. Austin, R. Cammi, C. Pomelli, J. W. Ochterski, 
 R. L. Martin, K. Morokuma, V. G. Zakrzewski, G. A. Voth, 
 P. Salvador, J. J. Dannenberg, S. Dapprich, A. D. Daniels, 
 O. Farkas, J. B. Foresman, J. V. Ortiz, J. Cioslowski, 
 and D. J. Fox, Gaussian, Inc., Wallingford CT, 2009.
 
 ******************************************
 Gaussian 09:  EM64L-G09RevA.02 11-Jun-2009
                 8-Apr-2011 
 ******************************************
 %chk=P3HT_4_cation_B3LYP_631GSTAR_TDDFT.chk
 %mem=11000MB
 %nprocshared=8
 Will use up to    8 processors via shared memory.
 -------------------------------------------------------
 #p sp B3LYP/6-31g* td(singlets,nstates=3) geom=allcheck
 -------------------------------------------------------
 1/29=7,38=1/1;
 2/12=2,40=1/2;
 3/5=1,6=6,7=1,11=2,14=-4,16=1,25=1,30=1,74=-5/1,2,8,3;
 4//1;
 5/5=2,38=5/2;
 8/6=1,10=2,108=3/1;
 9/41=3,42=1,48=1/14;
 6/7=2,8=2,9=2,10=2/1;
 99/5=1,9=1/99;
 Leave Link    1 at Fri Apr  8 11:22:18 2011, MaxMem= 1441792000 cpu:       0.2
 (Enter /apps/gaussian/g09/g09/l101.exe)
 -------------------
 Title Card Required
 -------------------
 Redundant internal coordinates taken from checkpoint file:
 P3HT_4_cation_B3LYP_631GSTAR_TDDFT.chk
 Charge =  1 Multiplicity = 2
 C,0,-4.5878800041,0.1207849552,0.
 C,0,-5.1783350041,1.3854325802,0.
 C,0,-6.5849444102,1.3452723432,0.
 C,0,-7.0776533975,0.0563016583,0.
 S,0,-5.8299145981,-1.1295358723,0.
 H,0,-4.6047194413,2.306287284,0.
 H,0,-7.2186060627,2.2241834143,0.
 H,0,-8.1138576352,-0.2567289079,0.
 C,0,-3.2051124655,-0.2127379838,0.
 C,0,-2.6222731482,-1.4936837708,0.
 S,0,-1.9631326868,1.0256385336,0.
 C,0,-1.2356529844,-1.4777369826,0.
 H,0,-3.2119501054,-2.4034547113,0.
 C,0,-0.6807462438,-0.1831094398,0.
 H,0,-0.6273694868,-2.3757149273,0.
 C,0,0.6804754519,0.1826014616,0.
 C,0,1.2353821902,1.4772290057,0.
 S,0,1.9628618877,-1.0261465218,0.
 C,0,2.6220023504,1.4931757917,0.
 H,0,0.6270986987,2.3752069552,0.
 C,0,3.2048416605,0.2122300059,0.
 H,0,3.2116793067,2.4029467341,0.
 C,0,4.5876091924,-0.1212929545,0.
 C,0,5.1780641796,-1.3859405882,0.
 S,0,5.8296437923,1.1290278512,0.
 C,0,6.5846735822,-1.3457803747,0.
 H,0,4.6044486123,-2.3067952839,0.
 C,0,7.0773825811,-0.0568096987,0.
 H,0,7.2183352252,-2.2246914543,0.
 H,0,8.1135868227,0.2562208478,0.
 Recover connectivity data from disk.
                    Isotopes and Nuclear Properties:
 (Nuclear quadrupole moments (NQMom) in fm**2, nuclear magnetic moments (NMagM)
  in nuclear magnetons)

  Atom         1           2           3           4           5           6           7           8           9          10
 IAtWgt=          12          12          12          12          32           1           1           1          12          12
 AtmWgt=  12.0000000  12.0000000  12.0000000  12.0000000  31.9720718   1.0078250   1.0078250   1.0078250  12.0000000  12.0000000
 NucSpn=           0           0           0           0           0           1           1           1           0           0
 AtZEff=  -3.6000000  -3.6000000  -3.6000000  -3.6000000 -13.6000000  -1.0000000  -1.0000000  -1.0000000  -3.6000000  -3.6000000
 NQMom=    0.0000000   0.0000000   0.0000000   0.0000000   0.0000000   0.0000000   0.0000000   0.0000000   0.0000000   0.0000000
 NMagM=    0.0000000   0.0000000   0.0000000   0.0000000   0.0000000   2.7928460   2.7928460   2.7928460   0.0000000   0.0000000

  Atom        11          12          13          14          15          16          17          18          19          20
 IAtWgt=          32          12           1          12           1          12          12          32          12           1
 AtmWgt=  31.9720718  12.0000000   1.0078250  12.0000000   1.0078250  12.0000000  12.0000000  31.9720718  12.0000000   1.0078250
 NucSpn=           0           0           1           0           1           0           0           0           0           1
 AtZEff= -13.6000000  -3.6000000  -1.0000000  -3.6000000  -1.0000000  -3.6000000  -3.6000000 -13.6000000  -3.6000000  -1.0000000
 NQMom=    0.0000000   0.0000000   0.0000000   0.0000000   0.0000000   0.0000000   0.0000000   0.0000000   0.0000000   0.0000000
 NMagM=    0.0000000   0.0000000   2.7928460   0.0000000   2.7928460   0.0000000   0.0000000   0.0000000   0.0000000   2.7928460

  Atom        21          22          23          24          25          26          27          28          29          30
 IAtWgt=          12           1          12          12          32          12           1          12           1           1
 AtmWgt=  12.0000000   1.0078250  12.0000000  12.0000000  31.9720718  12.0000000   1.0078250  12.0000000   1.0078250   1.0078250
 NucSpn=           0           1           0           0           0           0           1           0           1           1
 AtZEff=  -3.6000000  -1.0000000  -3.6000000  -3.6000000 -13.6000000  -3.6000000  -1.0000000  -3.6000000  -1.0000000  -1.0000000
 NQMom=    0.0000000   0.0000000   0.0000000   0.0000000   0.0000000   0.0000000   0.0000000   0.0000000   0.0000000   0.0000000
 NMagM=    0.0000000   2.7928460   0.0000000   0.0000000   0.0000000   0.0000000   2.7928460   0.0000000   2.7928460   2.7928460
 Leave Link  101 at Fri Apr  8 11:22:19 2011, MaxMem= 1441792000 cpu:       0.9
 (Enter /apps/gaussian/g09/g09/l202.exe)
                          Input orientation:                          
 ---------------------------------------------------------------------
 Center     Atomic      Atomic             Coordinates (Angstroms)
 Number     Number       Type             X           Y           Z
 ---------------------------------------------------------------------
      1          6           0       -4.587880    0.120785    0.000000
      2          6           0       -5.178335    1.385433    0.000000
      3          6           0       -6.584944    1.345272    0.000000
      4          6           0       -7.077653    0.056302    0.000000
      5         16           0       -5.829915   -1.129536    0.000000
      6          1           0       -4.604719    2.306287    0.000000
      7          1           0       -7.218606    2.224183    0.000000
      8          1           0       -8.113858   -0.256729    0.000000
      9          6           0       -3.205112   -0.212738    0.000000
     10          6           0       -2.622273   -1.493684    0.000000
     11         16           0       -1.963133    1.025639    0.000000
     12          6           0       -1.235653   -1.477737    0.000000
     13          1           0       -3.211950   -2.403455    0.000000
     14          6           0       -0.680746   -0.183109    0.000000
     15          1           0       -0.627369   -2.375715    0.000000
     16          6           0        0.680475    0.182601    0.000000
     17          6           0        1.235382    1.477229    0.000000
     18         16           0        1.962862   -1.026147    0.000000
     19          6           0        2.622002    1.493176    0.000000
     20          1           0        0.627099    2.375207    0.000000
     21          6           0        3.204842    0.212230    0.000000
     22          1           0        3.211679    2.402947    0.000000
     23          6           0        4.587609   -0.121293    0.000000
     24          6           0        5.178064   -1.385941    0.000000
     25         16           0        5.829644    1.129028    0.000000
     26          6           0        6.584674   -1.345780    0.000000
     27          1           0        4.604449   -2.306795    0.000000
     28          6           0        7.077383   -0.056810    0.000000
     29          1           0        7.218335   -2.224691    0.000000
     30          1           0        8.113587    0.256221    0.000000
 ---------------------------------------------------------------------
                    Distance matrix (angstroms):
                    1          2          3          4          5
     1  C    0.000000
     2  C    1.395697   0.000000
     3  C    2.342570   1.407183   0.000000
     4  C    2.490608   2.318189   1.379930   0.000000
     5  S    1.762371   2.598004   2.587421   1.721355   0.000000
     6  H    2.185567   1.084900   2.201100   3.343327   3.647737
     7  H    3.368235   2.205949   1.083518   2.172459   3.629862
     8  H    3.546130   3.363627   2.214494   1.082454   2.445033
     9  C    1.422422   2.539243   3.721648   3.881875   2.780307
    10  C    2.543643   3.850034   4.874673   4.717295   3.228245
    11  S    2.776339   3.235271   4.632851   5.205568   4.426825
    12  C    3.713852   4.872626   6.048496   6.040053   4.607438
    13  H    2.874886   4.268763   5.042821   4.581928   2.911461
    14  C    3.918934   4.763258   6.098812   6.401386   5.235423
    15  H    4.681683   5.904026   7.024133   6.893538   5.349714
    16  C    5.268718   5.981008   7.357862   7.759157   6.641301
    17  C    5.979157   6.414374   7.821440   8.433599   7.530846
    18  S    6.650389   7.537401   8.870661   9.105087   7.793462
    19  C    7.339336   7.801081   9.208135   9.805505   8.849492
    20  H    5.681410   5.889203   7.285213   8.046150   7.346853
    21  C    7.793258   8.464872   9.855136  10.283677   9.133847
    22  H    8.126585   8.451490   9.853553  10.553535   9.707155
    23  C    9.178682   9.881492  11.268397  11.666614  10.466201
    24  C    9.881492  10.720798  12.075922  12.340287  11.010965
    25  S   10.466201  11.010965  12.416471  12.951798  11.876296
    26  C   11.268397  12.075922  13.441749  13.734082  12.416471
    27  H    9.507473  10.456357  11.770306  11.918714  10.500565
    28  C   11.666614  12.340287  13.734082  14.155488  12.951798
    29  H   12.036942  12.911639  14.257460  14.476817  13.094128
    30  H   12.702189  13.339802  14.738821  15.192556  14.012193
                    6          7          8          9         10
     6  H    0.000000
     7  H    2.615176   0.000000
     8  H    4.345469   2.637499   0.000000
     9  C    2.881734   4.695393   4.908942   0.000000
    10  C    4.286009   5.911752   5.629170   1.407311   0.000000
    11  S    2.935650   5.390409   6.282984   1.753879   2.604122
    12  C    5.066503   7.035620   6.985740   2.340725   1.386712
    13  H    4.911362   6.121138   5.351367   2.190727   1.084160
    14  C    4.647006   6.966970   7.433476   2.524540   2.342463
    15  H    6.143326   8.037628   7.780592   3.365000   2.181197
    16  C    5.695904   8.158649   8.805300   3.905648   3.703793
    17  C    5.898654   8.486923   9.508675   4.751208   4.869068
    18  S    7.364662   9.739815  10.106052   5.231596   4.608910
    19  C    7.272321   9.867722  10.877539   6.071689   6.035210
    20  H    5.232272   7.847158   9.128604   4.624208   5.052399
    21  C    8.085439  10.615848  11.328410   6.424026   6.071689
    22  H    7.816996  10.431817  11.633644   6.929432   7.015606
    23  C    9.507473  12.036942  12.702189   7.793258   7.339336
    24  C   10.456357  12.911639  13.339802   8.464872   7.801081
    25  S   10.500566  13.094128  14.012193   9.133847   8.849492
    26  C   11.770306  14.257460  14.738821   9.855136   9.208135
    27  H   10.299966  12.661532  12.882472   8.085439   7.272321
    28  C   11.918714  14.476817  15.192556  10.283677   9.805505
    29  H   12.661532  15.106878  15.457976  10.615848   9.867722
    30  H   12.882472  15.457976  16.235550  11.328410  10.877539
                   11         12         13         14         15
    11  S    0.000000
    12  C    2.606936   0.000000
    13  H    3.649414   2.182362   0.000000
    14  C    1.762267   1.408539   3.367035   0.000000
    15  H    3.654240   1.084607   2.584729   2.193255   0.000000
    16  C    2.774775   2.535404   4.673186   1.409492   2.873228
    17  C    3.230237   3.851992   5.902412   2.535404   4.279605
    18  S    4.429814   3.230237   5.354966   2.774775   2.920725
    19  C    4.608910   4.869068   7.015606   3.703793   5.052399
    20  H    2.920725   4.279605   6.129756   2.873228   4.913751
    21  C    5.231596   4.751208   6.929432   3.905648   4.624208
    22  H    5.354966   5.902412   8.022750   4.673186   6.129756
    23  C    6.650389   5.979157   8.126585   5.268718   5.681410
    24  C    7.537401   6.414374   8.451489   5.981008   5.889203
    25  S    7.793462   7.530846   9.707155   6.641301   7.346853
    26  C    8.870661   7.821440   9.853553   7.357862   7.285213
    27  H    7.364662   5.898654   7.816996   5.695904   5.232272
    28  C    9.105087   8.433599  10.553535   7.759157   8.046150
    29  H    9.739815   8.486923  10.431817   8.158648   7.847158
    30  H   10.106052   9.508675  11.633643   8.805300   9.128604
                   16         17         18         19         20
    16  C    0.000000
    17  C    1.408539   0.000000
    18  S    1.762267   2.606936   0.000000
    19  C    2.342463   1.386712   2.604122   0.000000
    20  H    2.193255   1.084607   3.654240   2.181197   0.000000
    21  C    2.524540   2.340725   1.753879   1.407311   3.365000
    22  H    3.367035   2.182362   3.649414   1.084160   2.584729
    23  C    3.918934   3.713852   2.776339   2.543643   4.681683
    24  C    4.763258   4.872626   3.235271   3.850034   5.904026
    25  S    5.235423   4.607438   4.426825   3.228245   5.349714
    26  C    6.098812   6.048496   4.632851   4.874673   7.024133
    27  H    4.647006   5.066503   2.935650   4.286009   6.143326
    28  C    6.401386   6.040053   5.205568   4.717295   6.893538
    29  H    6.966970   7.035620   5.390409   5.911752   8.037628
    30  H    7.433476   6.985740   6.282984   5.629170   7.780592
                   21         22         23         24         25
    21  C    0.000000
    22  H    2.190727   0.000000
    23  C    1.422422   2.874886   0.000000
    24  C    2.539243   4.268763   1.395697   0.000000
    25  S    2.780307   2.911461   1.762371   2.598004   0.000000
    26  C    3.721648   5.042821   2.342570   1.407183   2.587421
    27  H    2.881734   4.911362   2.185567   1.084900   3.647737
    28  C    3.881875   4.581928   2.490608   2.318189   1.721355
    29  H    4.695393   6.121138   3.368235   2.205949   3.629862
    30  H    4.908942   5.351367   3.546130   3.363627   2.445033
                   26         27         28         29         30
    26  C    0.000000
    27  H    2.201100   0.000000
    28  C    1.379930   3.343327   0.000000
    29  H    1.083518   2.615176   2.172459   0.000000
    30  H    2.214494   4.345469   1.082454   2.637499   0.000000
 Stoichiometry    C16H10S4(1+,2)
 Framework group  CS[SG(C16H10S4)]
 Deg. of freedom    57
 Full point group                 CS      NOp   2
 Largest Abelian subgroup         CS      NOp   2
 Largest concise Abelian subgroup C1      NOp   1
                         Standard orientation:                         
 ---------------------------------------------------------------------
 Center     Atomic      Atomic             Coordinates (Angstroms)
 Number     Number       Type             X           Y           Z
 ---------------------------------------------------------------------
      1          6           0       -0.051188    4.589056    0.000000
      2          6           0       -1.306701    5.198693    0.000000
      3          6           0       -1.245133    6.604528    0.000000
      4          6           0        0.051188    7.077559    0.000000
      5         16           0        1.217895    5.811913    0.000000
      6          1           0       -2.236181    4.639162    0.000000
      7          1           0       -2.114297    7.251496    0.000000
      8          1           0        0.379956    8.108878    0.000000
      9          6           0        0.261247    3.201371    0.000000
     10          6           0        1.533172    2.599100    0.000000
     11         16           0       -0.995892    1.978386    0.000000
     12          6           0        1.496119    1.212883    0.000000
     13          1           0        2.451814    3.174860    0.000000
     14          6           0        0.193195    0.677748    0.000000
     15          1           0        2.384734    0.591001    0.000000
     16          6           0       -0.193195   -0.677748    0.000000
     17          6           0       -1.496119   -1.212884    0.000000
     18         16           0        0.995892   -1.978386    0.000000
     19          6           0       -1.533172   -2.599100    0.000000
     20          1           0       -2.384734   -0.591001    0.000000
     21          6           0       -0.261247   -3.201371    0.000000
     22          1           0       -2.451814   -3.174860    0.000000
     23          6           0        0.051188   -4.589056    0.000000
     24          6           0        1.306701   -5.198693    0.000000
     25         16           0       -1.217895   -5.811913    0.000000
     26          6           0        1.245133   -6.604528    0.000000
     27          1           0        2.236181   -4.639162    0.000000
     28          6           0       -0.051188   -7.077559    0.000000
     29          1           0        2.114297   -7.251496    0.000000
     30          1           0       -0.379956   -8.108878    0.000000
 ---------------------------------------------------------------------
 Rotational constants (GHZ):      1.2943871      0.0768933      0.0725816
 Leave Link  202 at Fri Apr  8 11:22:19 2011, MaxMem= 1441792000 cpu:       0.0
 (Enter /apps/gaussian/g09/g09/l301.exe)
 Standard basis: 6-31G(d) (6D, 7F)
 Ernie: Thresh=  0.10000D-02 Tol=  0.10000D-05 Strict=F.
 There are   252 symmetry adapted basis functions of A'  symmetry.
 There are    84 symmetry adapted basis functions of A"  symmetry.
 Integral buffers will be    131072 words long.
 Raffenetti 2 integral format.
 Two-electron integral symmetry is turned on.
   336 basis functions,   696 primitive gaussians,   336 cartesian basis functions
    85 alpha electrons       84 beta electrons
       nuclear repulsion energy      1800.8318818901 Hartrees.
 IExCor=  402 DFT=T Ex+Corr=B3LYP ExCW=0 ScaHFX=  0.200000
 ScaDFX=  0.800000  0.720000  1.000000  0.810000 ScalE2=  1.000000  1.000000
 IRadAn=      0 IRanWt=     -1 IRanGd=            0 ICorTp=0
 NAtoms=   30 NActive=   30 NUniq=   30 SFac= 7.50D-01 NAtFMM=   80 NAOKFM=F Big=F
 Leave Link  301 at Fri Apr  8 11:22:19 2011, MaxMem= 1441792000 cpu:       0.4
 (Enter /apps/gaussian/g09/g09/l302.exe)
 NPDir=0 NMtPBC=     1 NCelOv=     1 NCel=       1 NClECP=     1 NCelD=      1
         NCelK=      1 NCelE2=     1 NClLst=     1 CellRange=     0.0.
 One-electron integrals computed using PRISM.
 NBasis=   336 RedAO= T  NBF=   252    84
 NBsUse=   336 1.00D-06 NBFU=   252    84
 Precomputing XC quadrature grid using
 IXCGrd= 2 IRadAn=           0 IRanWt=          -1 IRanGd=           0 AccXCQ= 1.00D-10.
 NRdTot=    1922 NPtTot=      245420 NUsed=      259277 NTot=      259309
 NSgBfM=   318   319   319   319   319 NAtAll=    30    30.
 Leave Link  302 at Fri Apr  8 11:22:19 2011, MaxMem= 1441792000 cpu:       3.2
 (Enter /apps/gaussian/g09/g09/l308.exe)
 Leave Link  308 at Fri Apr  8 11:22:19 2011, MaxMem= 1441792000 cpu:       0.6
 (Enter /apps/gaussian/g09/g09/l303.exe)
 DipDrv:  MaxL=1.
 Leave Link  303 at Fri Apr  8 11:22:19 2011, MaxMem= 1441792000 cpu:       0.5
 (Enter /apps/gaussian/g09/g09/l401.exe)
 Harris functional with IExCor=  402 diagonalized for initial guess.
 ExpMin= 1.17D-01 ExpMax= 2.19D+04 ExpMxC= 3.30D+03 IAcc=1 IRadAn=         1 AccDes= 0.00D+00
 HarFok:  IExCor=  402 AccDes= 0.00D+00 IRadAn=         1 IDoV= 1
 ScaDFX=  1.000000  1.000000  1.000000  1.000000
 FoFCou: FMM=F IPFlag=           0 FMFlag=      100000 FMFlg1=           0
         NFxFlg=           0 DoJE=T BraDBF=F KetDBF=T FulRan=T
         Omega=  0.000000  0.000000  1.000000  0.000000  0.000000 ICntrl=     500 IOpCl=  0
         NMat0=    1 NMatS0=    1 NMatT0=    0 NMatD0=    1 NMtDS0=    0 NMtDT0=    0
         I1Cent=           4 NGrid=           0.
 Petite list used in FoFCou.
 Harris En= -2208.31962846840    
 Initial guess orbital symmetries:
 Alpha Orbitals:
       Occupied  (A') (A') (A') (A') (A') (A') (A') (A') (A') (A')
                 (A') (A') (A') (A') (A') (A') (A') (A') (A') (A')
                 (A') (A') (A') (A') (A') (A') (A') (A') (A') (A')
                 (A') (A') (A") (A") (A") (A") (A') (A') (A') (A')
                 (A') (A') (A') (A') (A') (A') (A') (A') (A') (A')
                 (A') (A') (A') (A') (A') (A') (A') (A') (A') (A')
                 (A') (A') (A') (A') (A') (A') (A') (A") (A") (A')
                 (A") (A") (A') (A') (A') (A") (A') (A') (A") (A")
                 (A") (A") (A") (A") (A")
       Virtual   (A") (A") (A") (A") (A") (A') (A') (A') (A') (A")
                 (A") (A") (A') (A') (A') (A') (A') (A') (A') (A')
                 (A') (A') (A') (A') (A') (A') (A') (A') (A') (A')
                 (A') (A') (A') (A') (A') (A') (A') (A') (A') (A')
                 (A') (A') (A') (A") (A') (A') (A") (A") (A") (A')
                 (A') (A') (A') (A') (A') (A') (A') (A') (A') (A")
                 (A") (A') (A") (A') (A') (A") (A') (A") (A') (A')
                 (A') (A') (A") (A") (A") (A") (A") (A") (A") (A")
                 (A") (A") (A") (A') (A') (A') (A') (A') (A') (A')
                 (A') (A') (A') (A') (A') (A') (A') (A") (A") (A')
                 (A") (A') (A") (A") (A') (A') (A') (A') (A') (A')
                 (A") (A') (A') (A") (A') (A') (A") (A') (A') (A')
                 (A') (A') (A') (A') (A') (A') (A') (A') (A') (A')
                 (A') (A') (A') (A') (A') (A') (A') (A") (A") (A')
                 (A') (A") (A") (A') (A") (A") (A") (A') (A') (A')
                 (A") (A") (A') (A') (A") (A") (A") (A') (A') (A')
                 (A') (A') (A') (A") (A") (A") (A') (A') (A') (A")
                 (A") (A') (A') (A') (A') (A') (A') (A') (A') (A")
                 (A") (A') (A") (A') (A') (A') (A') (A') (A') (A')
                 (A") (A") (A") (A') (A") (A') (A") (A') (A') (A')
                 (A') (A') (A') (A') (A") (A') (A") (A") (A") (A')
                 (A") (A") (A") (A') (A') (A') (A') (A') (A') (A')
                 (A') (A') (A') (A') (A') (A') (A') (A') (A') (A')
                 (A') (A') (A') (A') (A') (A') (A') (A') (A') (A')
                 (A') (A') (A') (A') (A') (A') (A') (A') (A') (A')
                 (A')
 Beta  Orbitals:
       Occupied  (A') (A') (A') (A') (A') (A') (A') (A') (A') (A')
                 (A') (A') (A') (A') (A') (A') (A') (A') (A') (A')
                 (A') (A') (A') (A') (A') (A') (A') (A') (A') (A')
                 (A') (A') (A") (A") (A") (A") (A') (A') (A') (A')
                 (A') (A') (A') (A') (A') (A') (A') (A') (A') (A')
                 (A') (A') (A') (A') (A') (A') (A') (A') (A') (A')
                 (A') (A') (A') (A') (A') (A') (A') (A") (A") (A')
                 (A") (A") (A') (A') (A') (A") (A') (A') (A") (A")
                 (A") (A") (A") (A")
       Virtual   (A") (A") (A") (A") (A") (A") (A') (A') (A') (A')
                 (A") (A") (A") (A') (A') (A') (A') (A') (A') (A')
                 (A') (A') (A') (A') (A') (A') (A') (A') (A') (A')
                 (A') (A') (A') (A') (A') (A') (A') (A') (A') (A')
                 (A') (A') (A') (A') (A") (A') (A') (A") (A") (A")
                 (A') (A') (A') (A') (A') (A') (A') (A') (A') (A')
                 (A") (A") (A') (A") (A') (A') (A") (A') (A") (A')
                 (A') (A') (A') (A") (A") (A") (A") (A") (A") (A")
                 (A") (A") (A") (A") (A') (A') (A') (A') (A') (A')
                 (A') (A') (A') (A') (A') (A') (A') (A') (A") (A")
                 (A') (A") (A') (A") (A") (A') (A') (A') (A') (A')
                 (A') (A") (A') (A') (A") (A') (A') (A") (A') (A')
                 (A') (A') (A') (A') (A') (A') (A') (A') (A') (A')
                 (A') (A') (A') (A') (A') (A') (A') (A') (A") (A")
                 (A') (A') (A") (A") (A') (A") (A") (A") (A') (A')
                 (A') (A") (A") (A') (A') (A") (A") (A") (A') (A')
                 (A') (A') (A') (A') (A") (A") (A") (A') (A') (A')
                 (A") (A") (A') (A') (A') (A') (A') (A') (A') (A')
                 (A") (A") (A') (A") (A') (A') (A') (A') (A') (A')
                 (A') (A") (A") (A") (A') (A") (A') (A") (A') (A')
                 (A') (A') (A') (A') (A') (A") (A') (A") (A") (A")
                 (A') (A") (A") (A") (A') (A') (A') (A') (A') (A')
                 (A') (A') (A') (A') (A') (A') (A') (A') (A') (A')
                 (A') (A') (A') (A') (A') (A') (A') (A') (A') (A')
                 (A') (A') (A') (A') (A') (A') (A') (A') (A') (A')
                 (A') (A')
 The electronic state of the initial guess is 2-A".
 Initial guess <Sx>= 0.0000 <Sy>= 0.0000 <Sz>= 0.5000 <S**2>= 0.7500 S= 0.5000
 Leave Link  401 at Fri Apr  8 11:22:20 2011, MaxMem= 1441792000 cpu:       5.8
 (Enter /apps/gaussian/g09/g09/l502.exe)
 UHF open shell SCF:
 Requested convergence on RMS density matrix=1.00D-08 within 128 cycles.
 Requested convergence on MAX density matrix=1.00D-06.
 Requested convergence on             energy=1.00D-06.
 No special actions if energy rises.
 Using DIIS extrapolation, IDIIS=  1040.
 Integral symmetry usage will be decided dynamically.
       258994 words used for storage of precomputed grid.
 IEnd=      621136 IEndB=      621136 NGot=  1441792000 MDV=  1441300737
 LenX=  1441300737 LenY=  1441187400
 Fock matrices will be formed incrementally for  20 cycles.
 Integral accuracy reduced to 1.0D-05 until final iterations.

 Cycle   1  Pass 0  IDiag  1:
 FoFCou: FMM=F IPFlag=           0 FMFlag=      100000 FMFlg1=           0
         NFxFlg=           0 DoJE=F BraDBF=F KetDBF=F FulRan=T
         Omega=  0.000000  0.000000  1.000000  0.000000  0.000000 ICntrl=       0 IOpCl=  1
         NMat0=    1 NMatS0=    1 NMatT0=    0 NMatD0=    1 NMtDS0=    0 NMtDT0=    0
         I1Cent=           0 NGrid=           0.
 Petite list used in FoFCou.
 E= -2207.49193087749    
 DIIS: error= 4.02D-02 at cycle   1 NSaved=   1.
 NSaved= 1 IEnMin= 1 EnMin= -2207.49193087749     IErMin= 1 ErrMin= 4.02D-02
 ErrMax= 4.02D-02 EMaxC= 1.00D-01 BMatC= 2.53D+00 BMatP= 2.53D+00
 IDIUse=3 WtCom= 5.98D-01 WtEn= 4.02D-01
 Coeff-Com:  0.100D+01
 Coeff-En:   0.100D+01
 Coeff:      0.100D+01
 Gap=     0.021 Goal=   None    Shift=    0.000
 Gap=     0.135 Goal=   None    Shift=    0.000
 GapD=    0.021 DampG=0.250 DampE=0.500 DampFc=0.2500 IDamp=-1.
 Damping current iteration by 2.50D-01
 RMSDP=7.49D-03 MaxDP=3.21D-01              OVMax= 5.01D-01

 Cycle   2  Pass 0  IDiag  1:
 RMSU=  1.32D-03    CP:  9.93D-01
 E= -2207.77441700130     Delta-E=       -0.282486123810 Rises=F Damp=T
 DIIS: error= 2.02D-02 at cycle   2 NSaved=   2.
 NSaved= 2 IEnMin= 2 EnMin= -2207.77441700130     IErMin= 2 ErrMin= 2.02D-02
 ErrMax= 2.02D-02 EMaxC= 1.00D-01 BMatC= 4.35D-01 BMatP= 2.53D+00
 IDIUse=3 WtCom= 7.98D-01 WtEn= 2.02D-01
 Coeff-Com: -0.559D+00 0.156D+01
 Coeff-En:   0.000D+00 0.100D+01
 Coeff:     -0.447D+00 0.145D+01
 Gap=     0.099 Goal=   None    Shift=    0.000
 Gap=     0.095 Goal=   None    Shift=    0.000
 RMSDP=1.90D-03 MaxDP=6.34D-02 DE=-2.82D-01 OVMax= 3.38D-01

 Cycle   3  Pass 0  IDiag  1:
 RMSU=  1.19D-03    CP:  9.81D-01  1.42D+00
 E= -2208.18161360677     Delta-E=       -0.407196605473 Rises=F Damp=F
 DIIS: error= 1.33D-02 at cycle   3 NSaved=   3.
 NSaved= 3 IEnMin= 3 EnMin= -2208.18161360677     IErMin= 3 ErrMin= 1.33D-02
 ErrMax= 1.33D-02 EMaxC= 1.00D-01 BMatC= 1.31D-01 BMatP= 4.35D-01
 IDIUse=3 WtCom= 8.67D-01 WtEn= 1.33D-01
 Coeff-Com: -0.215D+00 0.706D+00 0.510D+00
 Coeff-En:   0.000D+00 0.000D+00 0.100D+01
 Coeff:     -0.187D+00 0.611D+00 0.575D+00
 Gap=     0.102 Goal=   None    Shift=    0.000
 Gap=     0.062 Goal=   None    Shift=    0.000
 RMSDP=1.14D-03 MaxDP=3.88D-02 DE=-4.07D-01 OVMax= 1.66D-01

 Cycle   4  Pass 0  IDiag  1:
 RMSU=  6.82D-04    CP:  9.83D-01  1.31D+00  6.97D-01
 E= -2208.19970800460     Delta-E=       -0.018094397822 Rises=F Damp=F
 DIIS: error= 1.46D-02 at cycle   4 NSaved=   4.
 NSaved= 4 IEnMin= 4 EnMin= -2208.19970800460     IErMin= 3 ErrMin= 1.33D-02
 ErrMax= 1.46D-02 EMaxC= 1.00D-01 BMatC= 6.75D-02 BMatP= 1.31D-01
 IDIUse=3 WtCom= 8.54D-01 WtEn= 1.46D-01
 Coeff-Com:  0.277D-01 0.171D-01 0.420D+00 0.535D+00
 Coeff-En:   0.000D+00 0.000D+00 0.380D+00 0.620D+00
 Coeff:      0.237D-01 0.146D-01 0.414D+00 0.548D+00
 Gap=     0.102 Goal=   None    Shift=    0.000
 Gap=     0.067 Goal=   None    Shift=    0.000
 RMSDP=6.23D-04 MaxDP=2.07D-02 DE=-1.81D-02 OVMax= 9.88D-02

 Cycle   5  Pass 0  IDiag  1:
 RMSU=  1.81D-04    CP:  9.83D-01  1.31D+00  8.48D-01  4.90D-01
 E= -2208.21973414912     Delta-E=       -0.020026144519 Rises=F Damp=F
 DIIS: error= 3.28D-03 at cycle   5 NSaved=   5.
 NSaved= 5 IEnMin= 5 EnMin= -2208.21973414912     IErMin= 5 ErrMin= 3.28D-03
 ErrMax= 3.28D-03 EMaxC= 1.00D-01 BMatC= 6.92D-03 BMatP= 6.75D-02
 IDIUse=3 WtCom= 9.67D-01 WtEn= 3.28D-02
 Coeff-Com:  0.254D-01-0.246D-01 0.225D+00 0.352D+00 0.422D+00
 Coeff-En:   0.000D+00 0.000D+00 0.000D+00 0.456D-01 0.954D+00
 Coeff:      0.246D-01-0.238D-01 0.218D+00 0.341D+00 0.440D+00
 Gap=     0.099 Goal=   None    Shift=    0.000
 Gap=     0.065 Goal=   None    Shift=    0.000
 RMSDP=1.86D-04 MaxDP=8.30D-03 DE=-2.00D-02 OVMax= 2.70D-02

 Cycle   6  Pass 0  IDiag  1:
 RMSU=  7.77D-05    CP:  9.82D-01  1.32D+00  8.38D-01  5.76D-01  5.57D-01
 E= -2208.22160250482     Delta-E=       -0.001868355709 Rises=F Damp=F
 DIIS: error= 1.06D-03 at cycle   6 NSaved=   6.
 NSaved= 6 IEnMin= 6 EnMin= -2208.22160250482     IErMin= 6 ErrMin= 1.06D-03
 ErrMax= 1.06D-03 EMaxC= 1.00D-01 BMatC= 9.09D-04 BMatP= 6.92D-03
 IDIUse=3 WtCom= 9.89D-01 WtEn= 1.06D-02
 Coeff-Com:  0.119D-01-0.187D-01 0.610D-01 0.117D+00 0.285D+00 0.544D+00
 Coeff-En:   0.000D+00 0.000D+00 0.000D+00 0.000D+00 0.108D+00 0.892D+00
 Coeff:      0.117D-01-0.185D-01 0.603D-01 0.115D+00 0.283D+00 0.548D+00
 Gap=     0.100 Goal=   None    Shift=    0.000
 Gap=     0.066 Goal=   None    Shift=    0.000
 RMSDP=7.15D-05 MaxDP=2.81D-03 DE=-1.87D-03 OVMax= 8.19D-03

 Cycle   7  Pass 0  IDiag  1:
 RMSU=  3.04D-05    CP:  9.82D-01  1.31D+00  8.44D-01  5.77D-01  6.80D-01
                    CP:  6.80D-01
 E= -2208.22188161860     Delta-E=       -0.000279113778 Rises=F Damp=F
 DIIS: error= 5.07D-04 at cycle   7 NSaved=   7.
 NSaved= 7 IEnMin= 7 EnMin= -2208.22188161860     IErMin= 7 ErrMin= 5.07D-04
 ErrMax= 5.07D-04 EMaxC= 1.00D-01 BMatC= 1.43D-04 BMatP= 9.09D-04
 IDIUse=3 WtCom= 9.95D-01 WtEn= 5.07D-03
 Coeff-Com:  0.506D-02-0.958D-02 0.132D-01 0.339D-01 0.126D+00 0.343D+00
 Coeff-Com:  0.488D+00
 Coeff-En:   0.000D+00 0.000D+00 0.000D+00 0.000D+00 0.000D+00 0.000D+00
 Coeff-En:   0.100D+01
 Coeff:      0.504D-02-0.953D-02 0.131D-01 0.338D-01 0.126D+00 0.342D+00
 Coeff:      0.490D+00
 Gap=     0.100 Goal=   None    Shift=    0.000
 Gap=     0.066 Goal=   None    Shift=    0.000
 RMSDP=2.97D-05 MaxDP=1.89D-03 DE=-2.79D-04 OVMax= 3.86D-03

 Cycle   8  Pass 0  IDiag  1:
 RMSU=  2.06D-05    CP:  9.82D-01  1.31D+00  8.46D-01  5.77D-01  6.83D-01
                    CP:  7.89D-01  9.46D-01
 E= -2208.22194085469     Delta-E=       -0.000059236088 Rises=F Damp=F
 DIIS: error= 2.48D-04 at cycle   8 NSaved=   8.
 NSaved= 8 IEnMin= 8 EnMin= -2208.22194085469     IErMin= 8 ErrMin= 2.48D-04
 ErrMax= 2.48D-04 EMaxC= 1.00D-01 BMatC= 3.63D-05 BMatP= 1.43D-04
 IDIUse=3 WtCom= 9.98D-01 WtEn= 2.48D-03
 Coeff-Com: -0.347D-02 0.518D-02-0.235D-01-0.399D-01-0.783D-01-0.795D-01
 Coeff-Com:  0.303D+00 0.916D+00
 Coeff-En:   0.000D+00 0.000D+00 0.000D+00 0.000D+00 0.000D+00 0.000D+00
 Coeff-En:   0.000D+00 0.100D+01
 Coeff:     -0.346D-02 0.516D-02-0.235D-01-0.398D-01-0.781D-01-0.793D-01
 Coeff:      0.302D+00 0.917D+00
 Gap=     0.100 Goal=   None    Shift=    0.000
 Gap=     0.066 Goal=   None    Shift=    0.000
 RMSDP=3.12D-05 MaxDP=1.92D-03 DE=-5.92D-05 OVMax= 6.83D-03

 Cycle   9  Pass 0  IDiag  1:
 RMSU=  9.87D-06    CP:  9.82D-01  1.31D+00  8.47D-01  5.81D-01  7.21D-01
                    CP:  8.87D-01  1.40D+00  1.23D+00
 E= -2208.22198338256     Delta-E=       -0.000042527874 Rises=F Damp=F
 DIIS: error= 1.12D-04 at cycle   9 NSaved=   9.
 NSaved= 9 IEnMin= 9 EnMin= -2208.22198338256     IErMin= 9 ErrMin= 1.12D-04
 ErrMax= 1.12D-04 EMaxC= 1.00D-01 BMatC= 1.21D-05 BMatP= 3.63D-05
 IDIUse=3 WtCom= 9.99D-01 WtEn= 1.12D-03
 Coeff-Com: -0.280D-02 0.470D-02-0.149D-01-0.276D-01-0.734D-01-0.126D+00
 Coeff-Com:  0.206D-01 0.483D+00 0.736D+00
 Coeff-En:   0.000D+00 0.000D+00 0.000D+00 0.000D+00 0.000D+00 0.000D+00
 Coeff-En:   0.000D+00 0.000D+00 0.100D+01
 Coeff:     -0.280D-02 0.469D-02-0.149D-01-0.276D-01-0.733D-01-0.126D+00
 Coeff:      0.206D-01 0.483D+00 0.737D+00
 Gap=     0.100 Goal=   None    Shift=    0.000
 Gap=     0.067 Goal=   None    Shift=    0.000
 RMSDP=1.85D-05 MaxDP=1.14D-03 DE=-4.25D-05 OVMax= 3.16D-03

 Cycle  10  Pass 0  IDiag  1:
 RMSU=  7.00D-06    CP:  9.82D-01  1.31D+00  8.48D-01  5.82D-01  7.44D-01
                    CP:  9.41D-01  1.60D+00  1.57D+00  9.08D-01
 E= -2208.22199554719     Delta-E=       -0.000012164626 Rises=F Damp=F
 DIIS: error= 8.59D-05 at cycle  10 NSaved=  10.
 NSaved=10 IEnMin=10 EnMin= -2208.22199554719     IErMin=10 ErrMin= 8.59D-05
 ErrMax= 8.59D-05 EMaxC= 1.00D-01 BMatC= 7.05D-06 BMatP= 1.21D-05
 IDIUse=1 WtCom= 1.00D+00 WtEn= 0.00D+00
 Coeff-Com: -0.196D-03 0.713D-03 0.157D-02 0.176D-02-0.130D-01-0.505D-01
 Coeff-Com: -0.182D+00-0.203D+00 0.624D+00 0.821D+00
 Coeff:     -0.196D-03 0.713D-03 0.157D-02 0.176D-02-0.130D-01-0.505D-01
 Coeff:     -0.182D+00-0.203D+00 0.624D+00 0.821D+00
 Gap=     0.100 Goal=   None    Shift=    0.000
 Gap=     0.067 Goal=   None    Shift=    0.000
 RMSDP=1.66D-05 MaxDP=9.59D-04 DE=-1.22D-05 OVMax= 3.17D-03

 Cycle  11  Pass 0  IDiag  1:
 RMSU=  1.98D-06    CP:  9.82D-01  1.31D+00  8.49D-01  5.83D-01  7.57D-01
                    CP:  9.89D-01  1.82D+00  1.87D+00  1.41D+00  1.02D+00
 E= -2208.22200174710     Delta-E=       -0.000006199913 Rises=F Damp=F
 DIIS: error= 2.97D-05 at cycle  11 NSaved=  11.
 NSaved=11 IEnMin=11 EnMin= -2208.22200174710     IErMin=11 ErrMin= 2.97D-05
 ErrMax= 2.97D-05 EMaxC= 1.00D-01 BMatC= 3.28D-07 BMatP= 7.05D-06
 IDIUse=1 WtCom= 1.00D+00 WtEn= 0.00D+00
 Coeff-Com:  0.391D-04 0.252D-04 0.185D-02 0.349D-02 0.209D-02-0.458D-02
 Coeff-Com: -0.618D-01-0.119D+00 0.157D+00 0.273D+00 0.748D+00
 Coeff:      0.391D-04 0.252D-04 0.185D-02 0.349D-02 0.209D-02-0.458D-02
 Coeff:     -0.618D-01-0.119D+00 0.157D+00 0.273D+00 0.748D+00
 Gap=     0.100 Goal=   None    Shift=    0.000
 Gap=     0.067 Goal=   None    Shift=    0.000
 RMSDP=2.43D-06 MaxDP=1.32D-04 DE=-6.20D-06 OVMax= 4.32D-04

 Initial convergence to 1.0D-05 achieved.  Increase integral accuracy.
 Cycle  12  Pass 1  IDiag  1:
 E= -2208.22174285795     Delta-E=        0.000258889154 Rises=F Damp=F
 DIIS: error= 4.68D-05 at cycle   1 NSaved=   1.
 NSaved= 1 IEnMin= 1 EnMin= -2208.22174285795     IErMin= 1 ErrMin= 4.68D-05
 ErrMax= 4.68D-05 EMaxC= 1.00D-01 BMatC= 1.35D-06 BMatP= 1.35D-06
 IDIUse=1 WtCom= 1.00D+00 WtEn= 0.00D+00
 Coeff-Com:  0.100D+01
 Coeff:      0.100D+01
 Gap=     0.100 Goal=   None    Shift=    0.000
 Gap=     0.067 Goal=   None    Shift=    0.000
 RMSDP=2.43D-06 MaxDP=1.32D-04 DE= 2.59D-04 OVMax= 1.52D-04

 Cycle  13  Pass 1  IDiag  1:
 RMSU=  1.27D-05    CP:  1.00D+00
 E= -2208.22174316029     Delta-E=       -0.000000302337 Rises=F Damp=F
 DIIS: error= 1.10D-05 at cycle   2 NSaved=   2.
 NSaved= 2 IEnMin= 2 EnMin= -2208.22174316029     IErMin= 2 ErrMin= 1.10D-05
 ErrMax= 1.10D-05 EMaxC= 1.00D-01 BMatC= 2.33D-07 BMatP= 1.35D-06
 IDIUse=1 WtCom= 1.00D+00 WtEn= 0.00D+00
 Coeff-Com:  0.200D+00 0.800D+00
 Coeff:      0.200D+00 0.800D+00
 Gap=     0.100 Goal=   None    Shift=    0.000
 Gap=     0.067 Goal=   None    Shift=    0.000
 RMSDP=1.57D-06 MaxDP=7.25D-05 DE=-3.02D-07 OVMax= 1.54D-04

 Cycle  14  Pass 1  IDiag  1:
 RMSU=  1.15D-06    CP:  1.00D+00  1.01D+00
 E= -2208.22174315674     Delta-E=        0.000000003542 Rises=F Damp=F
 DIIS: error= 1.19D-05 at cycle   3 NSaved=   3.
 NSaved= 3 IEnMin= 2 EnMin= -2208.22174316029     IErMin= 2 ErrMin= 1.10D-05
 ErrMax= 1.19D-05 EMaxC= 1.00D-01 BMatC= 2.65D-07 BMatP= 2.33D-07
 IDIUse=1 WtCom= 1.00D+00 WtEn= 0.00D+00
 Coeff-Com: -0.310D-02 0.517D+00 0.486D+00
 Coeff:     -0.310D-02 0.517D+00 0.486D+00
 Gap=     0.100 Goal=   None    Shift=    0.000
 Gap=     0.067 Goal=   None    Shift=    0.000
 RMSDP=8.98D-07 MaxDP=3.41D-05 DE= 3.54D-09 OVMax= 7.52D-05

 Cycle  15  Pass 1  IDiag  1:
 RMSU=  2.80D-07    CP:  1.00D+00  1.02D+00  5.11D-01
 E= -2208.22174322368     Delta-E=       -0.000000066938 Rises=F Damp=F
 DIIS: error= 5.39D-06 at cycle   4 NSaved=   4.
 NSaved= 4 IEnMin= 4 EnMin= -2208.22174322368     IErMin= 4 ErrMin= 5.39D-06
 ErrMax= 5.39D-06 EMaxC= 1.00D-01 BMatC= 1.44D-08 BMatP= 2.33D-07
 IDIUse=1 WtCom= 1.00D+00 WtEn= 0.00D+00
 Coeff-Com: -0.837D-02 0.303D+00 0.308D+00 0.397D+00
 Coeff:     -0.837D-02 0.303D+00 0.308D+00 0.397D+00
 Gap=     0.100 Goal=   None    Shift=    0.000
 Gap=     0.067 Goal=   None    Shift=    0.000
 RMSDP=2.63D-07 MaxDP=9.25D-06 DE=-6.69D-08 OVMax= 2.29D-05

 Cycle  16  Pass 1  IDiag  1:
 RMSU=  1.56D-07    CP:  1.00D+00  1.02D+00  5.40D-01  6.69D-01
 E= -2208.22174322768     Delta-E=       -0.000000003998 Rises=F Damp=F
 DIIS: error= 2.32D-06 at cycle   5 NSaved=   5.
 NSaved= 5 IEnMin= 5 EnMin= -2208.22174322768     IErMin= 5 ErrMin= 2.32D-06
 ErrMax= 2.32D-06 EMaxC= 1.00D-01 BMatC= 1.98D-09 BMatP= 1.44D-08
 IDIUse=1 WtCom= 1.00D+00 WtEn= 0.00D+00
 Coeff-Com: -0.326D-02 0.191D-01 0.292D-01 0.241D+00 0.714D+00
 Coeff:     -0.326D-02 0.191D-01 0.292D-01 0.241D+00 0.714D+00
 Gap=     0.100 Goal=   None    Shift=    0.000
 Gap=     0.067 Goal=   None    Shift=    0.000
 RMSDP=1.35D-07 MaxDP=6.77D-06 DE=-4.00D-09 OVMax= 1.74D-05

 Cycle  17  Pass 1  IDiag  1:
 RMSU=  8.31D-08    CP:  1.00D+00  1.02D+00  5.37D-01  8.31D-01  9.77D-01
 E= -2208.22174322871     Delta-E=       -0.000000001027 Rises=F Damp=F
 DIIS: error= 1.00D-06 at cycle   6 NSaved=   6.
 NSaved= 6 IEnMin= 6 EnMin= -2208.22174322871     IErMin= 6 ErrMin= 1.00D-06
 ErrMax= 1.00D-06 EMaxC= 1.00D-01 BMatC= 6.59D-10 BMatP= 1.98D-09
 IDIUse=1 WtCom= 1.00D+00 WtEn= 0.00D+00
 Coeff-Com:  0.346D-03-0.870D-01-0.843D-01 0.243D-01 0.443D+00 0.703D+00
 Coeff:      0.346D-03-0.870D-01-0.843D-01 0.243D-01 0.443D+00 0.703D+00
 Gap=     0.100 Goal=   None    Shift=    0.000
 Gap=     0.067 Goal=   None    Shift=    0.000
 RMSDP=9.39D-08 MaxDP=5.74D-06 DE=-1.03D-09 OVMax= 1.76D-05

 Cycle  18  Pass 1  IDiag  1:
 RMSU=  4.34D-08    CP:  1.00D+00  1.02D+00  5.49D-01  9.18D-01  1.23D+00
                    CP:  1.02D+00
 E= -2208.22174322915     Delta-E=       -0.000000000442 Rises=F Damp=F
 DIIS: error= 4.41D-07 at cycle   7 NSaved=   7.
 NSaved= 7 IEnMin= 7 EnMin= -2208.22174322915     IErMin= 7 ErrMin= 4.41D-07
 ErrMax= 4.41D-07 EMaxC= 1.00D-01 BMatC= 1.95D-10 BMatP= 6.59D-10
 IDIUse=1 WtCom= 1.00D+00 WtEn= 0.00D+00
 Coeff-Com:  0.167D-02-0.668D-01-0.697D-01-0.723D-01-0.367D-02 0.420D+00
 Coeff-Com:  0.791D+00
 Coeff:      0.167D-02-0.668D-01-0.697D-01-0.723D-01-0.367D-02 0.420D+00
 Coeff:      0.791D+00
 Gap=     0.100 Goal=   None    Shift=    0.000
 Gap=     0.067 Goal=   None    Shift=    0.000
 RMSDP=7.08D-08 MaxDP=5.35D-06 DE=-4.42D-10 OVMax= 1.19D-05

 Cycle  19  Pass 1  IDiag  1:
 RMSU=  2.59D-08    CP:  1.00D+00  1.02D+00  5.50D-01  9.83D-01  1.38D+00
                    CP:  1.40D+00  1.03D+00
 E= -2208.22174322931     Delta-E=       -0.000000000156 Rises=F Damp=F
 DIIS: error= 4.52D-07 at cycle   8 NSaved=   8.
 NSaved= 8 IEnMin= 8 EnMin= -2208.22174322931     IErMin= 7 ErrMin= 4.41D-07
 ErrMax= 4.52D-07 EMaxC= 1.00D-01 BMatC= 9.33D-11 BMatP= 1.95D-10
 IDIUse=1 WtCom= 1.00D+00 WtEn= 0.00D+00
 Coeff-Com:  0.100D-02-0.262D-01-0.292D-01-0.518D-01-0.968D-01 0.148D+00
 Coeff-Com:  0.566D+00 0.489D+00
 Coeff:      0.100D-02-0.262D-01-0.292D-01-0.518D-01-0.968D-01 0.148D+00
 Coeff:      0.566D+00 0.489D+00
 Gap=     0.100 Goal=   None    Shift=    0.000
 Gap=     0.067 Goal=   None    Shift=    0.000
 RMSDP=2.68D-08 MaxDP=2.14D-06 DE=-1.56D-10 OVMax= 6.13D-06

 Cycle  20  Pass 1  IDiag  1:
 RMSU=  1.10D-08    CP:  1.00D+00  1.02D+00  5.52D-01  1.00D+00  1.41D+00
                    CP:  1.45D+00  1.24D+00  7.07D-01
 E= -2208.22174322935     Delta-E=       -0.000000000047 Rises=F Damp=F
 DIIS: error= 1.21D-07 at cycle   9 NSaved=   9.
 NSaved= 9 IEnMin= 9 EnMin= -2208.22174322935     IErMin= 9 ErrMin= 1.21D-07
 ErrMax= 1.21D-07 EMaxC= 1.00D-01 BMatC= 1.11D-11 BMatP= 9.33D-11
 IDIUse=1 WtCom= 1.00D+00 WtEn= 0.00D+00
 Coeff-Com:  0.479D-04 0.370D-02 0.342D-02-0.670D-02-0.548D-01-0.387D-01
 Coeff-Com:  0.931D-01 0.262D+00 0.738D+00
 Coeff:      0.479D-04 0.370D-02 0.342D-02-0.670D-02-0.548D-01-0.387D-01
 Coeff:      0.931D-01 0.262D+00 0.738D+00
 Gap=     0.100 Goal=   None    Shift=    0.000
 Gap=     0.067 Goal=   None    Shift=    0.000
 RMSDP=1.36D-08 MaxDP=1.14D-06 DE=-4.68D-11 OVMax= 2.46D-06

 Cycle  21  Pass 1  IDiag  1:
 RMSU=  6.33D-09    CP:  1.00D+00  1.02D+00  5.51D-01  1.01D+00  1.42D+00
                    CP:  1.50D+00  1.32D+00  8.67D-01  1.03D+00
 E= -2208.22174322936     Delta-E=       -0.000000000006 Rises=F Damp=F
 DIIS: error= 5.17D-08 at cycle  10 NSaved=  10.
 NSaved=10 IEnMin=10 EnMin= -2208.22174322936     IErMin=10 ErrMin= 5.17D-08
 ErrMax= 5.17D-08 EMaxC= 1.00D-01 BMatC= 2.89D-12 BMatP= 1.11D-11
 IDIUse=1 WtCom= 1.00D+00 WtEn= 0.00D+00
 Coeff-Com: -0.231D-03 0.901D-02 0.102D-01 0.111D-01-0.157D-02-0.596D-01
 Coeff-Com: -0.114D+00-0.635D-02 0.383D+00 0.768D+00
 Coeff:     -0.231D-03 0.901D-02 0.102D-01 0.111D-01-0.157D-02-0.596D-01
 Coeff:     -0.114D+00-0.635D-02 0.383D+00 0.768D+00
 Gap=     0.100 Goal=   None    Shift=    0.000
 Gap=     0.067 Goal=   None    Shift=    0.000
 RMSDP=7.83D-09 MaxDP=4.88D-07 DE=-6.37D-12 OVMax= 1.56D-06

 SCF Done:  E(UB3LYP) =  -2208.22174323     A.U. after   21 cycles
             Convg  =    0.7827D-08             -V/T =  2.0051
 <Sx>= 0.0000 <Sy>= 0.0000 <Sz>= 0.5000 <S**2>= 0.7722 S= 0.5110
 <L.S>= 0.000000000000E+00
 KE= 2.196951938818D+03 PE=-8.788823783420D+03 EE= 2.582818219483D+03
 Annihilation of the first spin contaminant:
 S**2 before annihilation     0.7722,   after     0.7503
 Leave Link  502 at Fri Apr  8 11:23:38 2011, MaxMem= 1441792000 cpu:     625.6
 (Enter /apps/gaussian/g09/g09/l801.exe)
 ExpMin= 1.17D-01 ExpMax= 2.19D+04 ExpMxC= 3.30D+03 IAcc=1 IRadAn=         1 AccDes= 0.00D+00
 HarFok:  IExCor=  205 AccDes= 0.00D+00 IRadAn=         1 IDoV=-2
 ScaDFX=  1.000000  1.000000  1.000000  1.000000
 Largest valence mixing into a core orbital is  8.71D-05
 Largest core mixing into a valence orbital is  3.03D-05
 Largest valence mixing into a core orbital is  8.70D-05
 Largest core mixing into a valence orbital is  3.12D-05
 Range of M.O.s used for correlation:    37   336
 NBasis=   336 NAE=    85 NBE=    84 NFC=    36 NFV=     0
 NROrb=    300 NOA=    49 NOB=    48 NVA=   251 NVB=   252

 **** Warning!!: The smallest alpha delta epsilon is  0.99750855D-01


 **** Warning!!: The smallest beta delta epsilon is  0.66797151D-01

 Leave Link  801 at Fri Apr  8 11:23:38 2011, MaxMem= 1441792000 cpu:       0.9
 (Enter /apps/gaussian/g09/g09/l914.exe)
 UHF ground state
 Ignoring spin specification with unrestricted ground state.
 MDV=  1441792000 DFT=T DoStab=F Mixed=T DoRPA=T DoScal=F NonHer=T
 Would need an additional  3473600000 words for in-memory AO integral storage.
 Making orbital integer symmetry assigments:
 Orbital symmetries:
 Alpha Orbitals:
       Occupied  (A') (A') (A') (A') (A') (A') (A') (A') (A') (A')
                 (A') (A') (A') (A') (A') (A') (A') (A') (A') (A')
                 (A') (A') (A') (A') (A') (A') (A') (A') (A") (A")
                 (A') (A') (A') (A') (A") (A") (A') (A') (A') (A')
                 (A') (A') (A') (A') (A') (A') (A') (A') (A') (A')
                 (A') (A') (A') (A') (A') (A') (A') (A') (A') (A')
                 (A') (A") (A') (A') (A') (A") (A') (A') (A') (A')
                 (A") (A') (A") (A') (A') (A') (A') (A") (A") (A")
                 (A") (A") (A") (A") (A")
       Virtual   (A") (A") (A") (A') (A') (A') (A") (A') (A") (A')
                 (A") (A') (A") (A") (A') (A') (A') (A') (A') (A')
                 (A') (A') (A') (A') (A') (A') (A') (A') (A') (A')
                 (A') (A') (A') (A') (A') (A') (A') (A') (A') (A")
                 (A') (A") (A') (A") (A") (A') (A') (A') (A') (A')
                 (A') (A') (A') (A') (A') (A') (A') (A') (A') (A")
                 (A") (A") (A") (A") (A') (A') (A") (A') (A') (A")
                 (A') (A') (A') (A') (A") (A") (A") (A") (A") (A")
                 (A") (A") (A") (A') (A') (A') (A') (A') (A') (A")
                 (A") (A") (A") (A') (A') (A") (A') (A') (A') (A')
                 (A') (A') (A') (A') (A') (A') (A') (A') (A") (A')
                 (A') (A") (A') (A') (A") (A') (A') (A') (A') (A')
                 (A') (A') (A') (A') (A') (A') (A') (A') (A') (A')
                 (A') (A') (A') (A') (A') (A') (A') (A") (A') (A')
                 (A") (A") (A') (A') (A") (A') (A') (A") (A") (A')
                 (A") (A") (A") (A') (A') (A') (A") (A") (A") (A')
                 (A') (A') (A') (A") (A") (A") (A') (A") (A") (A')
                 (A') (A') (A') (A') (A') (A') (A') (A') (A") (A')
                 (A") (A") (A') (A') (A') (A') (A') (A') (A') (A')
                 (A") (A") (A') (A") (A') (A') (A") (A") (A') (A')
                 (A') (A') (A') (A') (A") (A') (A") (A") (A") (A")
                 (A') (A") (A") (A') (A') (A') (A') (A') (A') (A')
                 (A') (A') (A') (A') (A') (A') (A') (A') (A') (A')
                 (A') (A') (A') (A') (A') (A') (A') (A') (A') (A')
                 (A') (A') (A') (A') (A') (A') (A') (A') (A') (A')
                 (A')
 Beta  Orbitals:
       Occupied  (A') (A') (A') (A') (A') (A') (A') (A') (A') (A')
                 (A') (A') (A') (A') (A') (A') (A') (A') (A') (A')
                 (A') (A') (A') (A') (A') (A') (A') (A') (A") (A")
                 (A') (A') (A') (A') (A") (A") (A') (A') (A') (A')
                 (A') (A') (A') (A') (A') (A') (A') (A') (A') (A')
                 (A') (A') (A') (A') (A') (A') (A') (A') (A') (A')
                 (A') (A') (A") (A') (A') (A") (A') (A') (A') (A')
                 (A") (A') (A') (A") (A') (A') (A') (A") (A") (A")
                 (A") (A") (A") (A")
       Virtual   (A") (A") (A") (A") (A') (A') (A') (A') (A") (A')
                 (A") (A') (A") (A") (A') (A") (A') (A') (A') (A')
                 (A') (A') (A') (A') (A') (A') (A') (A') (A') (A')
                 (A') (A') (A') (A') (A') (A') (A') (A') (A') (A')
                 (A") (A") (A') (A') (A") (A") (A') (A') (A') (A')
                 (A') (A') (A') (A') (A') (A') (A') (A') (A') (A')
                 (A") (A") (A") (A") (A") (A') (A') (A') (A') (A")
                 (A") (A') (A') (A') (A') (A") (A") (A") (A") (A")
                 (A") (A") (A") (A") (A') (A') (A') (A') (A') (A')
                 (A") (A") (A") (A") (A') (A') (A") (A') (A') (A')
                 (A') (A') (A') (A') (A') (A') (A') (A') (A') (A")
                 (A') (A') (A") (A') (A') (A') (A") (A') (A') (A')
                 (A') (A') (A') (A') (A') (A') (A') (A') (A') (A')
                 (A') (A') (A') (A') (A') (A') (A') (A') (A') (A")
                 (A') (A") (A") (A') (A') (A') (A") (A') (A") (A')
                 (A") (A") (A") (A") (A') (A') (A') (A") (A") (A")
                 (A') (A') (A') (A') (A") (A") (A") (A') (A') (A")
                 (A') (A") (A') (A') (A') (A') (A') (A') (A') (A")
                 (A') (A") (A") (A') (A') (A') (A') (A') (A') (A')
                 (A') (A") (A") (A') (A") (A') (A') (A") (A") (A')
                 (A') (A') (A') (A') (A') (A") (A') (A") (A") (A")
                 (A') (A") (A") (A") (A') (A') (A') (A') (A') (A')
                 (A') (A') (A') (A') (A') (A') (A') (A') (A') (A')
                 (A') (A') (A') (A') (A') (A') (A') (A') (A') (A')
                 (A') (A') (A') (A') (A') (A') (A') (A') (A') (A')
                 (A') (A')
    12 initial guesses have been made.
 Convergence on wavefunction:    0.001000000000000
 Davidson Disk Diagonalization:  ConvIn= 1.00D-03 SkipCon=T Conv= 1.00D-03.
 Max sub-space:   200 roots to seek:    12 dimension of matrix:  24395
 Iteration     1 Dimension    12 NMult    12
 Cannot handle 2e integral symmetry, ISym2E=1.
 CISAX:  IP=  1 NPass=   1 NMax=    12.
 CISAX will form    12 AO SS matrices at one time.
 NMat=    12 NSing=    12.
 Symmetry not used in FoFDir.
 MinBra= 0 MaxBra= 2 Meth= 1.
 IRaf=       0 NMat=  12 IRICut=      30 DoRegI=T DoRafI=T ISym2E= 0 JSym2E=0.
 Cannot handle 2e integral symmetry, ISym2E=1.
 CISAX:  IP=  1 NPass=   1 NMax=    12.
 CISAX will form    12 AO SS matrices at one time.
 NMat=    12 NSing=    12.
 No map to state      2
 Excitation Energies [eV] at current iteration:
 Root      1 :     1.517939823471047
 Root      2 :     2.335243426810638
 Root      3 :     2.352352712477793
 Iteration     2 Dimension    18 NMult    18
 Cannot handle 2e integral symmetry, ISym2E=1.
 CISAX:  IP=  1 NPass=   1 NMax=     6.
 CISAX will form     6 AO SS matrices at one time.
 NMat=     6 NSing=     6.
 Cannot handle 2e integral symmetry, ISym2E=1.
 CISAX:  IP=  1 NPass=   1 NMax=     6.
 CISAX will form     6 AO SS matrices at one time.
 NMat=     6 NSing=     6.
 Root      1 not converged, maximum delta is    0.067052209696623
 New state      2 was old state      3
 Root      2 not converged, maximum delta is    0.114383724261433
 New state      3 was old state      2
 Root      3 not converged, maximum delta is    0.129907836183688
 Excitation Energies [eV] at current iteration:
 Root      1 :     1.351129833259048   Change is   -0.166809990211999
 Root      2 :     2.205181260569002   Change is   -0.147171451908791
 Root      3 :     2.206461273815570   Change is   -0.128782152995068
 Iteration     3 Dimension    24 NMult    24
 Cannot handle 2e integral symmetry, ISym2E=1.
 CISAX:  IP=  1 NPass=   1 NMax=     6.
 CISAX will form     6 AO SS matrices at one time.
 NMat=     6 NSing=     6.
 Cannot handle 2e integral symmetry, ISym2E=1.
 CISAX:  IP=  1 NPass=   1 NMax=     6.
 CISAX will form     6 AO SS matrices at one time.
 NMat=     6 NSing=     6.
 Root      1 not converged, maximum delta is    0.030118058410432
 New state      2 was old state      3
 Root      2 not converged, maximum delta is    0.056800024229794
 New state      3 was old state      2
 Root      3 not converged, maximum delta is    0.052060867455261
 Excitation Energies [eV] at current iteration:
 Root      1 :     1.323244611425161   Change is   -0.027885221833888
 Root      2 :     2.178704286892786   Change is   -0.027756986922784
 Root      3 :     2.180240824313232   Change is   -0.024940436255770
 Iteration     4 Dimension    30 NMult    30
 Cannot handle 2e integral symmetry, ISym2E=1.
 CISAX:  IP=  1 NPass=   1 NMax=     6.
 CISAX will form     6 AO SS matrices at one time.
 NMat=     6 NSing=     6.
 Cannot handle 2e integral symmetry, ISym2E=1.
 CISAX:  IP=  1 NPass=   1 NMax=     6.
 CISAX will form     6 AO SS matrices at one time.
 NMat=     6 NSing=     6.
 Root      1 not converged, maximum delta is    0.014819844270866
 Root      2 not converged, maximum delta is    0.047403539706350
 Root      3 not converged, maximum delta is    0.046144855476485
 Excitation Energies [eV] at current iteration:
 Root      1 :     1.315746111442353   Change is   -0.007498499982807
 Root      2 :     2.164364346427549   Change is   -0.014339940465237
 Root      3 :     2.168377871280265   Change is   -0.011862953032968
 Iteration     5 Dimension    36 NMult    36
 Cannot handle 2e integral symmetry, ISym2E=1.
 CISAX:  IP=  1 NPass=   1 NMax=     6.
 CISAX will form     6 AO SS matrices at one time.
 NMat=     6 NSing=     6.
 Cannot handle 2e integral symmetry, ISym2E=1.
 CISAX:  IP=  1 NPass=   1 NMax=     6.
 CISAX will form     6 AO SS matrices at one time.
 NMat=     6 NSing=     6.
 Root      1 not converged, maximum delta is    0.007883074514821
 Root      2 not converged, maximum delta is    0.025164923130480
 Root      3 not converged, maximum delta is    0.054817388888076
 Excitation Energies [eV] at current iteration:
 Root      1 :     1.314025235974595   Change is   -0.001720875467758
 Root      2 :     2.160567338329007   Change is   -0.003797008098542
 Root      3 :     2.163992317103555   Change is   -0.004385554176710
 Iteration     6 Dimension    42 NMult    42
 Cannot handle 2e integral symmetry, ISym2E=1.
 CISAX:  IP=  1 NPass=   1 NMax=     6.
 CISAX will form     6 AO SS matrices at one time.
 NMat=     6 NSing=     6.
 Cannot handle 2e integral symmetry, ISym2E=1.
 CISAX:  IP=  1 NPass=   1 NMax=     6.
 CISAX will form     6 AO SS matrices at one time.
 NMat=     6 NSing=     6.
 Root      1 not converged, maximum delta is    0.003220296599151
 Root      2 not converged, maximum delta is    0.024742770392511
 Root      3 not converged, maximum delta is    0.104381497397354
 Excitation Energies [eV] at current iteration:
 Root      1 :     1.313581946221093   Change is   -0.000443289753502
 Root      2 :     2.157672551407518   Change is   -0.002894786921489
 Root      3 :     2.159086055874087   Change is   -0.004906261229467
 Iteration     7 Dimension    48 NMult    48
 Cannot handle 2e integral symmetry, ISym2E=1.
 CISAX:  IP=  1 NPass=   1 NMax=     6.
 CISAX will form     6 AO SS matrices at one time.
 NMat=     6 NSing=     6.
 Cannot handle 2e integral symmetry, ISym2E=1.
 CISAX:  IP=  1 NPass=   1 NMax=     6.
 CISAX will form     6 AO SS matrices at one time.
 NMat=     6 NSing=     6.
 Root      1 not converged, maximum delta is    0.001251307926053
 Root      2 not converged, maximum delta is    0.009589586355238
 Root      3 not converged, maximum delta is    0.046441350953687
 Excitation Energies [eV] at current iteration:
 Root      1 :     1.313520966614541   Change is   -0.000060979606552
 Root      2 :     2.156867837936599   Change is   -0.000804713470919
 Root      3 :     2.157001648886734   Change is   -0.002084406987354
 Iteration     8 Dimension    54 NMult    54
 Cannot handle 2e integral symmetry, ISym2E=1.
 CISAX:  IP=  1 NPass=   1 NMax=     6.
 CISAX will form     6 AO SS matrices at one time.
 NMat=     6 NSing=     6.
 Cannot handle 2e integral symmetry, ISym2E=1.
 CISAX:  IP=  1 NPass=   1 NMax=     6.
 CISAX will form     6 AO SS matrices at one time.
 NMat=     6 NSing=     6.
 Root      1 has converged.
 New state      2 was old state      3
 Root      2 not converged, maximum delta is    0.011135372056448
 New state      3 was old state      2
 Root      3 not converged, maximum delta is    0.002443273540440
 Excitation Energies [eV] at current iteration:
 Root      1 :     1.313513850277811   Change is   -0.000007116336730
 Root      2 :     2.156550043040552   Change is   -0.000451605846182
 Root      3 :     2.156761560737301   Change is   -0.000106277199299
 Iteration     9 Dimension    58 NMult    58
 Cannot handle 2e integral symmetry, ISym2E=1.
 CISAX:  IP=  1 NPass=   1 NMax=     4.
 CISAX will form     4 AO SS matrices at one time.
 NMat=     4 NSing=     4.
 Cannot handle 2e integral symmetry, ISym2E=1.
 CISAX:  IP=  1 NPass=   1 NMax=     4.
 CISAX will form     4 AO SS matrices at one time.
 NMat=     4 NSing=     4.
 Root      1 has converged.
 Root      2 not converged, maximum delta is    0.001640479266182
 Root      3 not converged, maximum delta is    0.001413244888877
 Excitation Energies [eV] at current iteration:
 Root      1 :     1.313513810342573   Change is   -0.000000039935238
 Root      2 :     2.156492986416398   Change is   -0.000057056624155
 Root      3 :     2.156742127434190   Change is   -0.000019433303111
 Iteration    10 Dimension    62 NMult    62
 Cannot handle 2e integral symmetry, ISym2E=1.
 CISAX:  IP=  1 NPass=   1 NMax=     4.
 CISAX will form     4 AO SS matrices at one time.
 NMat=     4 NSing=     4.
 Cannot handle 2e integral symmetry, ISym2E=1.
 CISAX:  IP=  1 NPass=   1 NMax=     4.
 CISAX will form     4 AO SS matrices at one time.
 NMat=     4 NSing=     4.
 Root      1 has converged.
 Root      2 has converged.
 Root      3 has converged.
 Excitation Energies [eV] at current iteration:
 Root      1 :     1.313513792033986   Change is   -0.000000018308587
 Root      2 :     2.156481205906477   Change is   -0.000011780509920
 Root      3 :     2.156739566839993   Change is   -0.000002560594197
 Convergence achieved on expansion vectors.
 ***********************************************************************
 Excited states from <AA,BB:AA,BB> singles matrix:
 ***********************************************************************
 
 ExtSpn:  IState=     1 X2= 1.018 Y2= 0.018 X2-Y2-1= 2.22D-16
          S2Grnd=  0.772 Ra=  0.003 Rb= -0.004 T= -0.009 S2Ext= -0.010 S2=  0.762
 ExtSpn:  IState=     2 X2= 1.011 Y2= 0.011 X2-Y2-1=-3.33D-16
          S2Grnd=  0.772 Ra=  0.020 Rb=  0.025 T=  0.036 S2Ext=  0.081 S2=  0.853
 ExtSpn:  IState=     3 X2= 1.009 Y2= 0.009 X2-Y2-1=-1.11D-15
          S2Grnd=  0.772 Ra=  0.065 Rb=  0.062 T=  0.124 S2Ext=  0.250 S2=  1.022
 1PDM for each excited state written to RWF  633
 Ground to excited state transition electric dipole moments (Au):
       state          X           Y           Z        Dip. S.      Osc.
         1        -0.0013      2.1642      0.0000      4.6835      0.1507
         2         0.1144      2.2464      0.0000      5.0595      0.2673
         3         0.0000      0.0000      0.0000      0.0000      0.0000
 Ground to excited state transition velocity dipole moments (Au):
       state          X           Y           Z        Dip. S.      Osc.
         1         0.0006     -0.0916      0.0000      0.0084      0.1158
         2        -0.0111     -0.1742      0.0000      0.0305      0.2562
         3         0.0000      0.0000      0.0000      0.0000      0.0000
 Ground to excited state transition magnetic dipole moments (Au):
       state          X           Y           Z
         1         0.0000      0.0000      0.0000
         2         0.0000      0.0000      0.0000
         3         0.0000      0.0000      0.4165
 <0|del|b> * <b|rxdel|0> + <0|del|b> * <b|delr+rdel|0>
 Rotatory Strengths (R) in cgs (10**-40 erg-esu-cm/Gauss)
       state          XX          YY          ZZ    R(velocity)
         1         0.0000      0.0000      0.0000      0.0000
 Total R(velocity) tensor for State=          1
                 1             2             3 
      1   0.000000D+00  0.000000D+00  0.000000D+00
      2   0.000000D+00  0.000000D+00  0.784959D-05
      3   0.000000D+00  0.000000D+00  0.000000D+00
 R(velocity) tensor in inp. orien. for State=          1
                 1             2             3 
      1   0.000000D+00  0.000000D+00  0.784607D-05
      2   0.000000D+00  0.000000D+00  0.000000D+00
      3   0.000000D+00  0.000000D+00  0.000000D+00
         2         0.0000      0.0000      0.0000      0.0000
 Total R(velocity) tensor for State=          2
                 1             2             3 
      1   0.000000D+00  0.000000D+00  0.190012D-04
      2   0.000000D+00  0.000000D+00  0.460804D-03
      3  -0.492314D-05  0.000000D+00  0.000000D+00
 R(velocity) tensor in inp. orien. for State=          2
                 1             2             3 
      1   0.000000D+00  0.000000D+00  0.461040D-03
      2   0.000000D+00  0.000000D+00  0.119844D-04
      3   0.000000D+00 -0.492735D-05  0.000000D+00
         3         0.0000      0.0000      0.0000      0.0000
 Total R(velocity) tensor for State=          3
                 1             2             3 
      1   0.000000D+00  0.000000D+00 -0.151284D-04
      2   0.000000D+00  0.000000D+00 -0.418342D-03
      3   0.268895D-05  0.000000D+00  0.000000D+00
 R(velocity) tensor in inp. orien. for State=          3
                 1             2             3 
      1   0.000000D+00  0.000000D+00 -0.418524D-03
      2   0.000000D+00  0.000000D+00 -0.875842D-05
      3   0.000000D+00  0.269156D-05  0.000000D+00
 1/2[<0|r|b>*<b|rxdel|0> + (<0|rxdel|b>*<b|r|0>)*]
 Rotatory Strengths (R) in cgs (10**-40 erg-esu-cm/Gauss)
       state          XX          YY          ZZ     R(length)     R(au)
         1         0.0000      0.0000      0.0000      0.0000      0.0000
         2         0.0000      0.0000      0.0000      0.0000      0.0000
         3         0.0000      0.0000      0.0000      0.0000      0.0000
  1/2[<0|del|b>*<b|r|0> + (<0|r|b>*<b|del|0>)*] (Au)
       state          X           Y           Z        Dip. S.   Osc.(frdel)
         1         0.0000     -0.1982      0.0000      0.1982      0.1321
         2        -0.0013     -0.3913      0.0000      0.3925      0.2617
         3         0.0000      0.0000      0.0000      0.0000      0.0000
 Ground to excited state transition densities written to RWF  633

 Excitation energies and oscillator strengths:
 
 Excited State   1:  2.012-A'     1.3135 eV  943.91 nm  f=0.1507  <S**2>=0.762
     85A -> 86A        0.49358
     84B -> 85B        0.86458
 This state for optimization and/or second-order correction.
 Total Energy, E(TD-HF/TD-KS) =  -2208.17347248    
 Copying the excited state density for this state as the 1-particle RhoCI density.
 
 Excited State   2:  2.101-A'     2.1565 eV  574.94 nm  f=0.2673  <S**2>=0.853
     85A -> 86A       -0.25801
     80B -> 85B        0.13937
     82B -> 86B        0.13023
     83B -> 85B        0.89997
     84B -> 85B        0.24255
 
 Excited State   3:  2.256-A'     2.1567 eV  574.87 nm  f=0.0000  <S**2>=1.022
     83A -> 86A       -0.11698
     84A -> 86A       -0.20333
     85A -> 87A        0.17898
     81B -> 85B       -0.34856
     82B -> 85B        0.84394
     83B -> 86B        0.13196
     84B -> 86B       -0.20013
 SavETr:  write IOETrn=   770 NScale= 10 NData=  16 NLR=1 LETran=      64.
 Leave Link  914 at Fri Apr  8 11:33:24 2011, MaxMem= 1441792000 cpu:    4685.2
 (Enter /apps/gaussian/g09/g09/l601.exe)
 Copying SCF densities to generalized density rwf, IOpCl= 1 IROHF=0.

 **********************************************************************

            Population analysis using the SCF density.

 **********************************************************************

 Orbital symmetries:
 Alpha Orbitals:
       Occupied  (A') (A') (A') (A') (A') (A') (A') (A') (A') (A')
                 (A') (A') (A') (A') (A') (A') (A') (A') (A') (A')
                 (A') (A') (A') (A') (A') (A') (A') (A') (A") (A")
                 (A') (A') (A') (A') (A") (A") (A') (A') (A') (A')
                 (A') (A') (A') (A') (A') (A') (A') (A') (A') (A')
                 (A') (A') (A') (A') (A') (A') (A') (A') (A') (A')
                 (A') (A") (A') (A') (A') (A") (A') (A') (A') (A')
                 (A") (A') (A") (A') (A') (A') (A') (A") (A") (A")
                 (A") (A") (A") (A") (A")
       Virtual   (A") (A") (A") (A') (A') (A') (A") (A') (A") (A')
                 (A") (A') (A") (A") (A') (A') (A') (A') (A') (A')
                 (A') (A') (A') (A') (A') (A') (A') (A') (A') (A')
                 (A') (A') (A') (A') (A') (A') (A') (A') (A') (A")
                 (A') (A") (A') (A") (A") (A') (A') (A') (A') (A')
                 (A') (A') (A') (A') (A') (A') (A') (A') (A') (A")
                 (A") (A") (A") (A") (A') (A') (A") (A') (A') (A")
                 (A') (A') (A') (A') (A") (A") (A") (A") (A") (A")
                 (A") (A") (A") (A') (A') (A') (A') (A') (A') (A")
                 (A") (A") (A") (A') (A') (A") (A') (A') (A') (A')
                 (A') (A') (A') (A') (A') (A') (A') (A') (A") (A')
                 (A') (A") (A') (A') (A") (A') (A') (A') (A') (A')
                 (A') (A') (A') (A') (A') (A') (A') (A') (A') (A')
                 (A') (A') (A') (A') (A') (A') (A') (A") (A') (A')
                 (A") (A") (A') (A') (A") (A') (A') (A") (A") (A')
                 (A") (A") (A") (A') (A') (A') (A") (A") (A") (A')
                 (A') (A') (A') (A") (A") (A") (A') (A") (A") (A')
                 (A') (A') (A') (A') (A') (A') (A') (A') (A") (A')
                 (A") (A") (A') (A') (A') (A') (A') (A') (A') (A')
                 (A") (A") (A') (A") (A') (A') (A") (A") (A') (A')
                 (A') (A') (A') (A') (A") (A') (A") (A") (A") (A")
                 (A') (A") (A") (A') (A') (A') (A') (A') (A') (A')
                 (A') (A') (A') (A') (A') (A') (A') (A') (A') (A')
                 (A') (A') (A') (A') (A') (A') (A') (A') (A') (A')
                 (A') (A') (A') (A') (A') (A') (A') (A') (A') (A')
                 (A')
 Beta  Orbitals:
       Occupied  (A') (A') (A') (A') (A') (A') (A') (A') (A') (A')
                 (A') (A') (A') (A') (A') (A') (A') (A') (A') (A')
                 (A') (A') (A') (A') (A') (A') (A') (A') (A") (A")
                 (A') (A') (A') (A') (A") (A") (A') (A') (A') (A')
                 (A') (A') (A') (A') (A') (A') (A') (A') (A') (A')
                 (A') (A') (A') (A') (A') (A') (A') (A') (A') (A')
                 (A') (A') (A") (A') (A') (A") (A') (A') (A') (A')
                 (A") (A') (A') (A") (A') (A') (A') (A") (A") (A")
                 (A") (A") (A") (A")
       Virtual   (A") (A") (A") (A") (A') (A') (A') (A') (A") (A')
                 (A") (A') (A") (A") (A') (A") (A') (A') (A') (A')
                 (A') (A') (A') (A') (A') (A') (A') (A') (A') (A')
                 (A') (A') (A') (A') (A') (A') (A') (A') (A') (A')
                 (A") (A") (A') (A') (A") (A") (A') (A') (A') (A')
                 (A') (A') (A') (A') (A') (A') (A') (A') (A') (A')
                 (A") (A") (A") (A") (A") (A') (A') (A') (A') (A")
                 (A") (A') (A') (A') (A') (A") (A") (A") (A") (A")
                 (A") (A") (A") (A") (A') (A') (A') (A') (A') (A')
                 (A") (A") (A") (A") (A') (A') (A") (A') (A') (A')
                 (A') (A') (A') (A') (A') (A') (A') (A') (A') (A")
                 (A') (A') (A") (A') (A') (A') (A") (A') (A') (A')
                 (A') (A') (A') (A') (A') (A') (A') (A') (A') (A')
                 (A') (A') (A') (A') (A') (A') (A') (A') (A') (A")
                 (A') (A") (A") (A') (A') (A') (A") (A') (A") (A')
                 (A") (A") (A") (A") (A') (A') (A') (A") (A") (A")
                 (A') (A') (A') (A') (A") (A") (A") (A') (A') (A")
                 (A') (A") (A') (A') (A') (A') (A') (A') (A') (A")
                 (A') (A") (A") (A') (A') (A') (A') (A') (A') (A')
                 (A') (A") (A") (A') (A") (A') (A') (A") (A") (A')
                 (A') (A') (A') (A') (A') (A") (A') (A") (A") (A")
                 (A') (A") (A") (A") (A') (A') (A') (A') (A') (A')
                 (A') (A') (A') (A') (A') (A') (A') (A') (A') (A')
                 (A') (A') (A') (A') (A') (A') (A') (A') (A') (A')
                 (A') (A') (A') (A') (A') (A') (A') (A') (A') (A')
                 (A') (A')
 The electronic state is 2-A".
 Alpha  occ. eigenvalues --  -89.04528 -89.04528 -89.03356 -89.03356 -10.38214
 Alpha  occ. eigenvalues --  -10.38214 -10.37873 -10.37824 -10.35898 -10.35898
 Alpha  occ. eigenvalues --  -10.34701 -10.34701 -10.34283 -10.34283 -10.33751
 Alpha  occ. eigenvalues --  -10.33751 -10.32799 -10.32799 -10.31620 -10.31620
 Alpha  occ. eigenvalues --   -8.10636  -8.10634  -8.09462  -8.09462  -6.07079
 Alpha  occ. eigenvalues --   -6.07077  -6.06700  -6.06700  -6.06241  -6.06241
 Alpha  occ. eigenvalues --   -6.05874  -6.05874  -6.05489  -6.05489  -6.05157
 Alpha  occ. eigenvalues --   -6.05157  -1.04108  -1.02609  -1.00727  -0.99842
 Alpha  occ. eigenvalues --   -0.92702  -0.89737  -0.88170  -0.87894  -0.86161
 Alpha  occ. eigenvalues --   -0.86124  -0.84244  -0.81337  -0.75495  -0.73525
 Alpha  occ. eigenvalues --   -0.71208  -0.68892  -0.67440  -0.66415  -0.66284
 Alpha  occ. eigenvalues --   -0.65781  -0.64765  -0.63466  -0.59804  -0.58167
 Alpha  occ. eigenvalues --   -0.55309  -0.55071  -0.54826  -0.53847  -0.53661
 Alpha  occ. eigenvalues --   -0.53253  -0.52291  -0.52272  -0.51945  -0.50981
 Alpha  occ. eigenvalues --   -0.50927  -0.49719  -0.49051  -0.48624  -0.47433
 Alpha  occ. eigenvalues --   -0.46376  -0.46343  -0.43895  -0.40214  -0.39227
 Alpha  occ. eigenvalues --   -0.39061  -0.37710  -0.37677  -0.34833  -0.31196
 Alpha virt. eigenvalues --   -0.21221  -0.16846  -0.13103  -0.11554  -0.11503
 Alpha virt. eigenvalues --   -0.09855  -0.09541  -0.09286  -0.07172  -0.06639
 Alpha virt. eigenvalues --   -0.04681  -0.03928  -0.03380  -0.03324  -0.02550
 Alpha virt. eigenvalues --   -0.02295   0.00414   0.00757   0.01791   0.04428
 Alpha virt. eigenvalues --    0.05570   0.06161   0.06841   0.07031   0.08038
 Alpha virt. eigenvalues --    0.08521   0.08883   0.10530   0.11774   0.12416
 Alpha virt. eigenvalues --    0.12832   0.14011   0.14111   0.15501   0.16649
 Alpha virt. eigenvalues --    0.18001   0.18267   0.22023   0.22089   0.23623
 Alpha virt. eigenvalues --    0.23808   0.23832   0.23918   0.25182   0.25192
 Alpha virt. eigenvalues --    0.25445   0.25512   0.27871   0.29432   0.29778
 Alpha virt. eigenvalues --    0.31953   0.33691   0.34071   0.35277   0.35410
 Alpha virt. eigenvalues --    0.36499   0.36688   0.37709   0.38533   0.40101
 Alpha virt. eigenvalues --    0.40214   0.42131   0.42399   0.43510   0.43834
 Alpha virt. eigenvalues --    0.44239   0.45592   0.45850   0.45923   0.47017
 Alpha virt. eigenvalues --    0.47245   0.47569   0.48357   0.48377   0.48719
 Alpha virt. eigenvalues --    0.49460   0.49617   0.51753   0.52672   0.54488
 Alpha virt. eigenvalues --    0.54927   0.55901   0.55959   0.57329   0.60783
 Alpha virt. eigenvalues --    0.63975   0.63996   0.65698   0.66307   0.66320
 Alpha virt. eigenvalues --    0.66575   0.67038   0.68161   0.68638   0.68709
 Alpha virt. eigenvalues --    0.68945   0.70131   0.71031   0.71422   0.71759
 Alpha virt. eigenvalues --    0.72336   0.72610   0.73395   0.74224   0.75538
 Alpha virt. eigenvalues --    0.76197   0.77371   0.77720   0.77809   0.78527
 Alpha virt. eigenvalues --    0.79052   0.80592   0.81327   0.81945   0.82838
 Alpha virt. eigenvalues --    0.82886   0.83371   0.87011   0.88306   0.88329
 Alpha virt. eigenvalues --    0.89559   0.90379   0.90596   0.91526   0.91769
 Alpha virt. eigenvalues --    0.92998   0.93373   0.93800   0.97459   0.98350
 Alpha virt. eigenvalues --    0.98591   1.00741   1.03574   1.04563   1.05426
 Alpha virt. eigenvalues --    1.07349   1.08706   1.13583   1.13934   1.16256
 Alpha virt. eigenvalues --    1.16469   1.19297   1.19936   1.21799   1.23882
 Alpha virt. eigenvalues --    1.23955   1.24384   1.25282   1.26850   1.27078
 Alpha virt. eigenvalues --    1.27104   1.32622   1.32642   1.34035   1.36671
 Alpha virt. eigenvalues --    1.36854   1.37986   1.39710   1.39783   1.42466
 Alpha virt. eigenvalues --    1.42605   1.54172   1.55650   1.56951   1.57572
 Alpha virt. eigenvalues --    1.58886   1.63622   1.66730   1.66987   1.66992
 Alpha virt. eigenvalues --    1.67637   1.69212   1.71993   1.73146   1.76538
 Alpha virt. eigenvalues --    1.79410   1.80432   1.81663   1.82584   1.83082
 Alpha virt. eigenvalues --    1.83190   1.84146   1.85571   1.86989   1.92851
 Alpha virt. eigenvalues --    1.96115   1.96785   1.98735   2.01422   2.04004
 Alpha virt. eigenvalues --    2.07183   2.07790   2.08468   2.08790   2.09205
 Alpha virt. eigenvalues --    2.12380   2.12692   2.12853   2.13888   2.14518
 Alpha virt. eigenvalues --    2.15961   2.18651   2.18999   2.20382   2.24268
 Alpha virt. eigenvalues --    2.24633   2.26502   2.27968   2.34314   2.34530
 Alpha virt. eigenvalues --    2.34820   2.35311   2.35771   2.41576   2.42390
 Alpha virt. eigenvalues --    2.50129   2.50796   2.58876   2.59195   2.65475
 Alpha virt. eigenvalues --    2.69826   2.77129   2.77859   2.79859   2.82764
 Alpha virt. eigenvalues --    2.87908   2.88009   2.93178   2.94000   2.98990
 Alpha virt. eigenvalues --    3.04174   3.81265   3.82413   3.82844   3.83300
 Alpha virt. eigenvalues --    3.94160   3.95599   3.97532   3.97756   3.99016
 Alpha virt. eigenvalues --    3.99022   3.99505   4.01994   4.12622   4.17386
 Alpha virt. eigenvalues --    4.22948   4.28542   4.30079   4.41629   4.41916
 Alpha virt. eigenvalues --    4.42630
  Beta  occ. eigenvalues --  -89.04550 -89.04550 -89.03354 -89.03354 -10.37970
  Beta  occ. eigenvalues --  -10.37970 -10.37759 -10.37709 -10.35913 -10.35913
  Beta  occ. eigenvalues --  -10.34488 -10.34488 -10.34155 -10.34155 -10.33718
  Beta  occ. eigenvalues --  -10.33718 -10.32647 -10.32647 -10.31658 -10.31658
  Beta  occ. eigenvalues --   -8.10657  -8.10656  -8.09461  -8.09461  -6.07100
  Beta  occ. eigenvalues --   -6.07098  -6.06720  -6.06720  -6.06295  -6.06295
  Beta  occ. eigenvalues --   -6.05877  -6.05877  -6.05493  -6.05493  -6.05145
  Beta  occ. eigenvalues --   -6.05145  -1.03775  -1.02295  -1.00487  -0.99565
  Beta  occ. eigenvalues --   -0.92286  -0.89438  -0.88028  -0.87752  -0.86009
  Beta  occ. eigenvalues --   -0.85976  -0.83960  -0.80786  -0.75273  -0.73270
  Beta  occ. eigenvalues --   -0.70951  -0.68710  -0.67244  -0.66254  -0.66178
  Beta  occ. eigenvalues --   -0.65630  -0.64655  -0.63320  -0.59628  -0.58074
  Beta  occ. eigenvalues --   -0.55214  -0.54718  -0.54250  -0.53711  -0.53492
  Beta  occ. eigenvalues --   -0.52450  -0.52181  -0.52159  -0.51849  -0.50924
  Beta  occ. eigenvalues --   -0.50238  -0.49638  -0.48555  -0.48224  -0.47387
  Beta  occ. eigenvalues --   -0.46330  -0.46304  -0.42473  -0.39693  -0.38993
  Beta  occ. eigenvalues --   -0.38034  -0.37382  -0.37353  -0.33405
  Beta virt. eigenvalues --   -0.26725  -0.19927  -0.15831  -0.12161  -0.11472
  Beta virt. eigenvalues --   -0.11379  -0.09797  -0.09207  -0.08650  -0.06466
  Beta virt. eigenvalues --   -0.06256  -0.03823  -0.03776  -0.02478  -0.02470
  Beta virt. eigenvalues --   -0.02465  -0.02223   0.00490   0.00805   0.01883
  Beta virt. eigenvalues --    0.04533   0.05679   0.06222   0.06907   0.07125
  Beta virt. eigenvalues --    0.08132   0.08590   0.08977   0.10601   0.12151
  Beta virt. eigenvalues --    0.12486   0.13013   0.14209   0.14222   0.15612
  Beta virt. eigenvalues --    0.16733   0.18079   0.18309   0.22075   0.22156
  Beta virt. eigenvalues --    0.23617   0.23772   0.23894   0.23985   0.25236
  Beta virt. eigenvalues --    0.25244   0.25619   0.25769   0.27938   0.29476
  Beta virt. eigenvalues --    0.29858   0.32136   0.33906   0.34199   0.35380
  Beta virt. eigenvalues --    0.35513   0.36559   0.36779   0.37892   0.38693
  Beta virt. eigenvalues --    0.40548   0.40814   0.42680   0.42831   0.43909
  Beta virt. eigenvalues --    0.44161   0.44487   0.46029   0.46099   0.46176
  Beta virt. eigenvalues --    0.47342   0.47450   0.47763   0.48505   0.48514
  Beta virt. eigenvalues --    0.49211   0.49922   0.50120   0.52330   0.53038
  Beta virt. eigenvalues --    0.54793   0.55215   0.56262   0.56317   0.57455
  Beta virt. eigenvalues --    0.60913   0.64089   0.64140   0.65768   0.66384
  Beta virt. eigenvalues --    0.66412   0.66707   0.67190   0.68364   0.68784
  Beta virt. eigenvalues --    0.68839   0.69126   0.70239   0.71120   0.71453
  Beta virt. eigenvalues --    0.71871   0.72474   0.72647   0.73470   0.74346
  Beta virt. eigenvalues --    0.75651   0.76317   0.77486   0.77817   0.77997
  Beta virt. eigenvalues --    0.78643   0.79142   0.80830   0.81404   0.82004
  Beta virt. eigenvalues --    0.82979   0.83125   0.83493   0.87075   0.88457
  Beta virt. eigenvalues --    0.88494   0.89606   0.90468   0.90681   0.91652
  Beta virt. eigenvalues --    0.91812   0.93203   0.93580   0.93953   0.97561
  Beta virt. eigenvalues --    0.98445   0.98749   1.00898   1.03702   1.04820
  Beta virt. eigenvalues --    1.05583   1.07488   1.08924   1.14033   1.14165
  Beta virt. eigenvalues --    1.16355   1.17018   1.19859   1.20024   1.21893
  Beta virt. eigenvalues --    1.24118   1.24334   1.24546   1.25762   1.27207
  Beta virt. eigenvalues --    1.27250   1.27498   1.33025   1.33044   1.34311
  Beta virt. eigenvalues --    1.36923   1.37119   1.38612   1.40232   1.40264
  Beta virt. eigenvalues --    1.42665   1.42793   1.54416   1.55904   1.57613
  Beta virt. eigenvalues --    1.58128   1.59372   1.63778   1.67130   1.67619
  Beta virt. eigenvalues --    1.67754   1.67858   1.69645   1.72203   1.73346
  Beta virt. eigenvalues --    1.76937   1.79493   1.80570   1.81822   1.83178
[...]
    30  H    0.000002   0.000000  -0.000113   0.000000   0.001848   0.004468
             25         26         27         28         29         30
     1  C    0.000000   0.000000   0.000000   0.000000   0.000000   0.000000
     2  C    0.000000   0.000000   0.000000   0.000000   0.000000   0.000000
     3  C    0.000000   0.000000   0.000000   0.000000   0.000000   0.000000
     4  C    0.000000   0.000000   0.000000   0.000000   0.000000   0.000000
     5  S    0.000000   0.000000   0.000000   0.000000   0.000000   0.000000
     6  H    0.000000   0.000000   0.000000   0.000000   0.000000   0.000000
     7  H    0.000000   0.000000   0.000000   0.000000   0.000000   0.000000
     8  H    0.000000   0.000000   0.000000   0.000000   0.000000   0.000000
     9  C    0.000000   0.000000   0.000000   0.000000   0.000000   0.000000
    10  C    0.000000   0.000000   0.000000   0.000000   0.000000   0.000000
    11  S    0.000000   0.000000   0.000000   0.000000   0.000000   0.000000
    12  C    0.000000   0.000000   0.000000   0.000000   0.000000   0.000000
    13  H    0.000000   0.000000   0.000000   0.000000   0.000000   0.000000
    14  C    0.000003   0.000000   0.000000   0.000000   0.000000   0.000000
    15  H    0.000000   0.000000   0.000000   0.000000   0.000000   0.000000
    16  C    0.000014  -0.000003   0.000010   0.000001   0.000000   0.000000
    17  C    0.000271   0.000003   0.000006  -0.000004   0.000000   0.000000
    18  S    0.003040   0.000208   0.005719  -0.000011   0.000002   0.000002
    19  C   -0.000360  -0.000225   0.000036   0.000048   0.000000   0.000002
    20  H    0.000001   0.000000   0.000000   0.000000   0.000000   0.000000
    21  C   -0.064759   0.006725  -0.007831   0.004635  -0.000118  -0.000113
    22  H    0.005568   0.000004  -0.000005  -0.000008   0.000000   0.000000
    23  C    0.315492  -0.033626  -0.048453  -0.045321   0.004586   0.001848
    24  C   -0.087671   0.521667   0.364408  -0.053926  -0.033239   0.004468
    25  S   15.244350  -0.073891   0.005477   0.328540   0.005785  -0.032860
    26  C   -0.073891   4.809485  -0.035514   0.551274   0.365616  -0.019361
    27  H    0.005477  -0.035514   0.525377   0.006032  -0.002225  -0.000090
    28  C    0.328540   0.551274   0.006032   5.207459  -0.042390   0.358357
    29  H    0.005785   0.365616  -0.002225  -0.042390   0.513252  -0.002624
    30  H   -0.032860  -0.019361  -0.000090   0.358357  -0.002624   0.467206
 Mulliken atomic charges:
              1
     1  C   -0.169280
     2  C   -0.115772
     3  C   -0.092363
     4  C   -0.314688
     5  S    0.351001
     6  H    0.187053
     7  H    0.191355
     8  H    0.223165
     9  C   -0.111456
    10  C   -0.131186
    11  S    0.347886
    12  C   -0.121278
    13  H    0.200114
    14  C   -0.142227
    15  H    0.197677
    16  C   -0.142227
    17  C   -0.121278
    18  S    0.347886
    19  C   -0.131186
    20  H    0.197677
    21  C   -0.111456
    22  H    0.200114
    23  C   -0.169280
    24  C   -0.115772
    25  S    0.351001
    26  C   -0.092363
    27  H    0.187053
    28  C   -0.314688
    29  H    0.191355
    30  H    0.223165
 Sum of Mulliken atomic charges =   1.00000
 Mulliken charges with hydrogens summed into heavy atoms:
              1
     1  C   -0.169280
     2  C    0.071281
     3  C    0.098992
     4  C   -0.091523
     5  S    0.351001
     9  C   -0.111456
    10  C    0.068928
    11  S    0.347886
    12  C    0.076399
    14  C   -0.142227
    16  C   -0.142227
    17  C    0.076399
    18  S    0.347886
    19  C    0.068928
    21  C   -0.111456
    23  C   -0.169280
    24  C    0.071281
    25  S    0.351001
    26  C    0.098992
    28  C   -0.091523
 Sum of Mulliken charges with hydrogens summed into heavy atoms =   1.00000
          Atomic-Atomic Spin Densities.
              1          2          3          4          5          6
     1  C   -0.012524   0.019915  -0.002353  -0.003689   0.014241   0.000220
     2  C    0.019915   0.115506  -0.013045  -0.007927   0.001572  -0.000267
     3  C   -0.002353  -0.013045  -0.030672   0.012954  -0.001168   0.000304
     4  C   -0.003689  -0.007927   0.012954   0.162497  -0.015306  -0.000027
     5  S    0.014241   0.001572  -0.001168  -0.015306   0.003514  -0.000021
     6  H    0.000220  -0.000267   0.000304  -0.000027  -0.000021  -0.005309
     7  H   -0.000018  -0.000068   0.000590  -0.000189  -0.000013   0.000049
     8  H   -0.000014   0.000002  -0.000246  -0.000827   0.000339   0.000001
     9  C   -0.030969  -0.005415   0.000187   0.000359  -0.002352   0.000001
    10  C   -0.002533  -0.000264   0.000008   0.000014  -0.000669  -0.000002
    11  S    0.002038   0.000363  -0.000016  -0.000003  -0.000063   0.000002
    12  C    0.000215   0.000013   0.000000   0.000000   0.000034   0.000000
    13  H    0.000096   0.000003   0.000000   0.000000  -0.000049   0.000000
    14  C    0.000154   0.000016   0.000000   0.000000   0.000009  -0.000001
    15  H    0.000000   0.000000   0.000000   0.000000   0.000000   0.000000
    16  C   -0.000002   0.000000   0.000000   0.000000   0.000000   0.000000
    17  C    0.000000   0.000000   0.000000   0.000000   0.000000   0.000000
    18  S    0.000000   0.000000   0.000000   0.000000   0.000000   0.000000
    19  C    0.000000   0.000000   0.000000   0.000000   0.000000   0.000000
    20  H    0.000000   0.000000   0.000000   0.000000   0.000000   0.000000
    21  C    0.000000   0.000000   0.000000   0.000000   0.000000   0.000000
    22  H    0.000000   0.000000   0.000000   0.000000   0.000000   0.000000
    23  C    0.000000   0.000000   0.000000   0.000000   0.000000   0.000000
    24  C    0.000000   0.000000   0.000000   0.000000   0.000000   0.000000
    25  S    0.000000   0.000000   0.000000   0.000000   0.000000   0.000000
    26  C    0.000000   0.000000   0.000000   0.000000   0.000000   0.000000
    27  H    0.000000   0.000000   0.000000   0.000000   0.000000   0.000000
    28  C    0.000000   0.000000   0.000000   0.000000   0.000000   0.000000
    29  H    0.000000   0.000000   0.000000   0.000000   0.000000   0.000000
    30  H    0.000000   0.000000   0.000000   0.000000   0.000000   0.000000
              7          8          9         10         11         12
     1  C   -0.000018  -0.000014  -0.030969  -0.002533   0.002038   0.000215
     2  C   -0.000068   0.000002  -0.005415  -0.000264   0.000363   0.000013
     3  C    0.000590  -0.000246   0.000187   0.000008  -0.000016   0.000000
     4  C   -0.000189  -0.000827   0.000359   0.000014  -0.000003   0.000000
     5  S   -0.000013   0.000339  -0.002352  -0.000669  -0.000063   0.000034
     6  H    0.000049   0.000001   0.000001  -0.000002   0.000002   0.000000
     7  H    0.000540   0.000025  -0.000001   0.000000   0.000000   0.000000
     8  H    0.000025  -0.006530   0.000001   0.000000   0.000000   0.000000
     9  C   -0.000001   0.000001   0.189378   0.030153  -0.001951  -0.009192
    10  C    0.000000   0.000000   0.030153   0.021696  -0.001554  -0.026173
    11  S    0.000000   0.000000  -0.001951  -0.001554  -0.045277  -0.000395
    12  C    0.000000   0.000000  -0.009192  -0.026173  -0.000395   0.097567
    13  H    0.000000   0.000000  -0.000287   0.000551  -0.000022   0.000056
    14  C    0.000000   0.000000  -0.006943  -0.006377   0.011777   0.032152
    15  H    0.000000   0.000000  -0.000002   0.000200  -0.000021   0.000093
    16  C    0.000000   0.000000   0.000314   0.000285   0.000526  -0.004650
    17  C    0.000000   0.000000   0.000020   0.000014  -0.000294  -0.000330
    18  S    0.000000   0.000000   0.000005  -0.000003  -0.000136  -0.000294
    19  C    0.000000   0.000000   0.000000   0.000000  -0.000003   0.000014
    20  H    0.000000   0.000000  -0.000001  -0.000001  -0.000018   0.000001
    21  C    0.000000   0.000000   0.000000   0.000000   0.000005   0.000020
    22  H    0.000000   0.000000   0.000000   0.000000   0.000000   0.000000
    23  C    0.000000   0.000000   0.000000   0.000000   0.000000   0.000000
    24  C    0.000000   0.000000   0.000000   0.000000   0.000000   0.000000
    25  S    0.000000   0.000000   0.000000   0.000000   0.000000   0.000000
    26  C    0.000000   0.000000   0.000000   0.000000   0.000000   0.000000
    27  H    0.000000   0.000000   0.000000   0.000000   0.000000   0.000000
    28  C    0.000000   0.000000   0.000000   0.000000   0.000000   0.000000
    29  H    0.000000   0.000000   0.000000   0.000000   0.000000   0.000000
    30  H    0.000000   0.000000   0.000000   0.000000   0.000000   0.000000
             13         14         15         16         17         18
     1  C    0.000096   0.000154   0.000000  -0.000002   0.000000   0.000000
     2  C    0.000003   0.000016   0.000000   0.000000   0.000000   0.000000
     3  C    0.000000   0.000000   0.000000   0.000000   0.000000   0.000000
     4  C    0.000000   0.000000   0.000000   0.000000   0.000000   0.000000
     5  S   -0.000049   0.000009   0.000000   0.000000   0.000000   0.000000
     6  H    0.000000  -0.000001   0.000000   0.000000   0.000000   0.000000
     7  H    0.000000   0.000000   0.000000   0.000000   0.000000   0.000000
     8  H    0.000000   0.000000   0.000000   0.000000   0.000000   0.000000
     9  C   -0.000287  -0.006943  -0.000002   0.000314   0.000020   0.000005
    10  C    0.000551  -0.006377   0.000200   0.000285   0.000014  -0.000003
    11  S   -0.000022   0.011777  -0.000021   0.000526  -0.000294  -0.000136
    12  C    0.000056   0.032152   0.000093  -0.004650  -0.000330  -0.000294
    13  H   -0.001843  -0.000011   0.000079   0.000000   0.000000   0.000000
    14  C   -0.000011   0.089056  -0.000047  -0.041495  -0.004650   0.000526
    15  H    0.000079  -0.000047  -0.004705   0.000045   0.000001  -0.000018
    16  C    0.000000  -0.041495   0.000045   0.089056   0.032152   0.011777
    17  C    0.000000  -0.004650   0.000001   0.032152   0.097567  -0.000395
    18  S    0.000000   0.000526  -0.000018   0.011777  -0.000395  -0.045277
    19  C    0.000000   0.000285  -0.000001  -0.006377  -0.026173  -0.001554
    20  H    0.000000   0.000045   0.000000  -0.000047   0.000093  -0.000021
    21  C    0.000000   0.000314  -0.000001  -0.006943  -0.009192  -0.001951
    22  H    0.000000   0.000000   0.000000  -0.000011   0.000056  -0.000022
    23  C    0.000000  -0.000002   0.000000   0.000154   0.000215   0.002038
    24  C    0.000000   0.000000   0.000000   0.000016   0.000013   0.000363
    25  S    0.000000   0.000000   0.000000   0.000009   0.000034  -0.000063
    26  C    0.000000   0.000000   0.000000   0.000000   0.000000  -0.000016
    27  H    0.000000   0.000000   0.000000  -0.000001   0.000000   0.000002
    28  C    0.000000   0.000000   0.000000   0.000000   0.000000  -0.000003
    29  H    0.000000   0.000000   0.000000   0.000000   0.000000   0.000000
    30  H    0.000000   0.000000   0.000000   0.000000   0.000000   0.000000
             19         20         21         22         23         24
     1  C    0.000000   0.000000   0.000000   0.000000   0.000000   0.000000
     2  C    0.000000   0.000000   0.000000   0.000000   0.000000   0.000000
     3  C    0.000000   0.000000   0.000000   0.000000   0.000000   0.000000
     4  C    0.000000   0.000000   0.000000   0.000000   0.000000   0.000000
     5  S    0.000000   0.000000   0.000000   0.000000   0.000000   0.000000
     6  H    0.000000   0.000000   0.000000   0.000000   0.000000   0.000000
     7  H    0.000000   0.000000   0.000000   0.000000   0.000000   0.000000
     8  H    0.000000   0.000000   0.000000   0.000000   0.000000   0.000000
     9  C    0.000000  -0.000001   0.000000   0.000000   0.000000   0.000000
    10  C    0.000000  -0.000001   0.000000   0.000000   0.000000   0.000000
    11  S   -0.000003  -0.000018   0.000005   0.000000   0.000000   0.000000
    12  C    0.000014   0.000001   0.000020   0.000000   0.000000   0.000000
    13  H    0.000000   0.000000   0.000000   0.000000   0.000000   0.000000
    14  C    0.000285   0.000045   0.000314   0.000000  -0.000002   0.000000
    15  H   -0.000001   0.000000  -0.000001   0.000000   0.000000   0.000000
    16  C   -0.006377  -0.000047  -0.006943  -0.000011   0.000154   0.000016
    17  C   -0.026173   0.000093  -0.009192   0.000056   0.000215   0.000013
    18  S   -0.001554  -0.000021  -0.001951  -0.000022   0.002038   0.000363
    19  C    0.021696   0.000200   0.030153   0.000551  -0.002533  -0.000264
    20  H    0.000200  -0.004705  -0.000002   0.000079   0.000000   0.000000
    21  C    0.030153  -0.000002   0.189378  -0.000287  -0.030969  -0.005415
    22  H    0.000551   0.000079  -0.000287  -0.001843   0.000096   0.000003
    23  C   -0.002533   0.000000  -0.030969   0.000096  -0.012524   0.019915
    24  C   -0.000264   0.000000  -0.005415   0.000003   0.019915   0.115506
    25  S   -0.000669   0.000000  -0.002352  -0.000049   0.014241   0.001572
    26  C    0.000008   0.000000   0.000187   0.000000  -0.002353  -0.013045
    27  H   -0.000002   0.000000   0.000001   0.000000   0.000220  -0.000267
    28  C    0.000014   0.000000   0.000359   0.000000  -0.003689  -0.007927
    29  H    0.000000   0.000000  -0.000001   0.000000  -0.000018  -0.000068
    30  H    0.000000   0.000000   0.000001   0.000000  -0.000014   0.000002
             25         26         27         28         29         30
     1  C    0.000000   0.000000   0.000000   0.000000   0.000000   0.000000
     2  C    0.000000   0.000000   0.000000   0.000000   0.000000   0.000000
     3  C    0.000000   0.000000   0.000000   0.000000   0.000000   0.000000
     4  C    0.000000   0.000000   0.000000   0.000000   0.000000   0.000000
     5  S    0.000000   0.000000   0.000000   0.000000   0.000000   0.000000
     6  H    0.000000   0.000000   0.000000   0.000000   0.000000   0.000000
     7  H    0.000000   0.000000   0.000000   0.000000   0.000000   0.000000
     8  H    0.000000   0.000000   0.000000   0.000000   0.000000   0.000000
     9  C    0.000000   0.000000   0.000000   0.000000   0.000000   0.000000
    10  C    0.000000   0.000000   0.000000   0.000000   0.000000   0.000000
    11  S    0.000000   0.000000   0.000000   0.000000   0.000000   0.000000
    12  C    0.000000   0.000000   0.000000   0.000000   0.000000   0.000000
    13  H    0.000000   0.000000   0.000000   0.000000   0.000000   0.000000
    14  C    0.000000   0.000000   0.000000   0.000000   0.000000   0.000000
    15  H    0.000000   0.000000   0.000000   0.000000   0.000000   0.000000
    16  C    0.000009   0.000000  -0.000001   0.000000   0.000000   0.000000
    17  C    0.000034   0.000000   0.000000   0.000000   0.000000   0.000000
    18  S   -0.000063  -0.000016   0.000002  -0.000003   0.000000   0.000000
    19  C   -0.000669   0.000008  -0.000002   0.000014   0.000000   0.000000
    20  H    0.000000   0.000000   0.000000   0.000000   0.000000   0.000000
    21  C   -0.002352   0.000187   0.000001   0.000359  -0.000001   0.000001
    22  H   -0.000049   0.000000   0.000000   0.000000   0.000000   0.000000
    23  C    0.014241  -0.002353   0.000220  -0.003689  -0.000018  -0.000014
    24  C    0.001572  -0.013045  -0.000267  -0.007927  -0.000068   0.000002
    25  S    0.003514  -0.001168  -0.000021  -0.015306  -0.000013   0.000339
    26  C   -0.001168  -0.030672   0.000304   0.012954   0.000590  -0.000246
    27  H   -0.000021   0.000304  -0.005309  -0.000027   0.000049   0.000001
    28  C   -0.015306   0.012954  -0.000027   0.162497  -0.000189  -0.000827
    29  H   -0.000013   0.000590   0.000049  -0.000189   0.000540   0.000025
    30  H    0.000339  -0.000246   0.000001  -0.000827   0.000025  -0.006530
 Mulliken atomic spin densities:
              1
     1  C   -0.015224
     2  C    0.110403
     3  C   -0.033457
     4  C    0.147855
     5  S    0.000067
     6  H   -0.005052
     7  H    0.000915
     8  H   -0.007250
     9  C    0.163304
    10  C    0.015345
    11  S   -0.035041
    12  C    0.089129
    13  H   -0.001427
    14  C    0.074808
    15  H   -0.004377
    16  C    0.074808
    17  C    0.089129
    18  S   -0.035041
    19  C    0.015345
    20  H   -0.004377
    21  C    0.163304
    22  H   -0.001427
    23  C   -0.015224
    24  C    0.110403
    25  S    0.000067
    26  C   -0.033457
    27  H   -0.005052
    28  C    0.147855
    29  H    0.000915
    30  H   -0.007250
 Sum of Mulliken atomic spin densities =   1.00000
 Electronic spatial extent (au):  <R**2>=          13235.8868
 Charge=              1.0000 electrons
 Dipole moment (field-independent basis, Debye):
    X=              0.0000    Y=              0.0000    Z=              0.0000  Tot=              0.0000
 Quadrupole moment (field-independent basis, Debye-Ang):
   XX=           -117.3810   YY=              6.7398   ZZ=           -146.7530
   XY=             -5.1374   XZ=              0.0000   YZ=              0.0000
 Traceless Quadrupole moment (field-independent basis, Debye-Ang):
   XX=            -31.5829   YY=             92.5379   ZZ=            -60.9549
   XY=             -5.1374   XZ=              0.0000   YZ=              0.0000
 Octapole moment (field-independent basis, Debye-Ang**2):
  XXX=              0.0000  YYY=              0.0000  ZZZ=              0.0000  XYY=              0.0000
  XXY=              0.0000  XXZ=              0.0000  XZZ=              0.0000  YZZ=              0.0000
  YYZ=              0.0000  XYZ=              0.0000
 Hexadecapole moment (field-independent basis, Debye-Ang**3):
 XXXX=          -1038.2647 YYYY=          -8775.8592 ZZZZ=           -163.9631 XXXY=           -139.8547
 XXXZ=              0.0000 YYYX=           -385.6913 YYYZ=              0.0000 ZZZX=              0.0000
 ZZZY=              0.0000 XXYY=          -2561.3804 XXZZ=           -237.4117 YYZZ=          -3017.9151
 XXYZ=              0.0000 YYXZ=              0.0000 ZZXY=            -22.1027
 N-N= 1.800831881890D+03 E-N=-1.316955496579D+04  KE= 3.294744061743D+03
 Symmetry A'   KE= 3.039601351903D+03
 Symmetry A"   KE= 2.551427098394D+02
 Leave Link  601 at Fri Apr  8 11:33:25 2011, MaxMem= 1441792000 cpu:       2.7
 (Enter /apps/gaussian/g09/g09/l9999.exe)
 1\1\GINC-CX1-7-4-1\SP\UTD-B3LYP-FC\6-31G(d)\C16H10S4(1+,2)\SPF310\08-A
 pr-2011\0\\#p sp B3LYP/6-31g* td(singlets,nstates=3) geom=allcheck\\Ti
 tle Card Required\\1,2\C,0,-4.5878800041,0.1207849552,0.\C,0,-5.178335
 0041,1.3854325802,0.\C,0,-6.5849444102,1.3452723432,0.\C,0,-7.07765339
 75,0.0563016583,0.\S,0,-5.8299145981,-1.1295358723,0.\H,0,-4.604719441
 3,2.306287284,0.\H,0,-7.2186060627,2.2241834143,0.\H,0,-8.1138576352,-
 0.2567289079,0.\C,0,-3.2051124655,-0.2127379838,0.\C,0,-2.6222731482,-
 1.4936837708,0.\S,0,-1.9631326868,1.0256385336,0.\C,0,-1.2356529844,-1
 .4777369826,0.\H,0,-3.2119501054,-2.4034547113,0.\C,0,-0.6807462438,-0
 .1831094398,0.\H,0,-0.6273694868,-2.3757149273,0.\C,0,0.6804754519,0.1
 826014616,0.\C,0,1.2353821902,1.4772290057,0.\S,0,1.9628618877,-1.0261
 465218,0.\C,0,2.6220023504,1.4931757917,0.\H,0,0.6270986987,2.37520695
 52,0.\C,0,3.2048416605,0.2122300059,0.\H,0,3.2116793067,2.4029467341,0
 .\C,0,4.5876091924,-0.1212929545,0.\C,0,5.1780641796,-1.3859405882,0.\
 S,0,5.8296437923,1.1290278512,0.\C,0,6.5846735822,-1.3457803747,0.\H,0
 ,4.6044486123,-2.3067952839,0.\C,0,7.0773825811,-0.0568096987,0.\H,0,7
 .2183352252,-2.2246914543,0.\H,0,8.1135868227,0.2562208478,0.\\Version
 =EM64L-G09RevA.02\State=2-A"\HF=-2208.2217432\S2=0.772152\S2-1=0.\S2A=
 0.750315\RMSD=7.827e-09\PG=CS [SG(C16H10S4)]\\@


 DEFINE YOUR TERMS, YOU WILL PERMIT ME AGAIN TO SAY, 
 OR WE SHALL NEVER UNDERSTAND ONE ANOTHER.

                                    -- VOLTAIRE
 Job cpu time:  0 days  1 hours 28 minutes 47.3 seconds.
 File lengths (MBytes):  RWF=    189 Int=      0 D2E=      0 Chk=     24 Scr=      1
 Normal termination of Gaussian 09 at Fri Apr  8 11:33:25 2011.
