 Entering Gaussian System, Link 0=g03
 Input=P3HT_6_cation_B3LYP_631GSTAR_TDDFT.com
 Output=P3HT_6_cation_B3LYP_631GSTAR_TDDFT.log
 Initial command:
 /apps/gaussian/g09/g09/l1.exe /tmp/pbs.5444148.cx1/Gau-18550.inp -scrdir=/tmp/pbs.5444148.cx1/
 Entering Link 1 = /apps/gaussian/g09/g09/l1.exe PID=     18555.
  
 Copyright (c) 1988,1990,1992,1993,1995,1998,2003,2009, Gaussian, Inc.
                  All Rights Reserved.
  
 This is part of the Gaussian(R) 09 program.  It is based on
 the Gaussian(R) 03 system (copyright 2003, Gaussian, Inc.),
 the Gaussian(R) 98 system (copyright 1998, Gaussian, Inc.),
 the Gaussian(R) 94 system (copyright 1995, Gaussian, Inc.),
 the Gaussian 92(TM) system (copyright 1992, Gaussian, Inc.),
 the Gaussian 90(TM) system (copyright 1990, Gaussian, Inc.),
 the Gaussian 88(TM) system (copyright 1988, Gaussian, Inc.),
 the Gaussian 86(TM) system (copyright 1986, Carnegie Mellon
 University), and the Gaussian 82(TM) system (copyright 1983,
 Carnegie Mellon University). Gaussian is a federally registered
 trademark of Gaussian, Inc.
  
 This software contains proprietary and confidential information,
 including trade secrets, belonging to Gaussian, Inc.
  
 This software is provided under written license and may be
 used, copied, transmitted, or stored only in accord with that
 written license.
  
 The following legend is applicable only to US Government
 contracts under FAR:
  
                    RESTRICTED RIGHTS LEGEND
  
 Use, reproduction and disclosure by the US Government is
 subject to restrictions as set forth in subparagraphs (a)
 and (c) of the Commercial Computer Software - Restricted
 Rights clause in FAR 52.227-19.
  
 Gaussian, Inc.
 340 Quinnipiac St., Bldg. 40, Wallingford CT 06492
  
  
 ---------------------------------------------------------------
 Warning -- This program may not be used in any manner that
 competes with the business of Gaussian, Inc. or will provide
 assistance to any competitor of Gaussian, Inc.  The licensee
 of this program is prohibited from giving any competitor of
 Gaussian, Inc. access to this program.  By using this program,
 the user acknowledges that Gaussian, Inc. is engaged in the
 business of creating and licensing software in the field of
 computational chemistry and represents and warrants to the
 licensee that it is not a competitor of Gaussian, Inc. and that
 it will not use this program in any manner prohibited above.
 ---------------------------------------------------------------
  

 Cite this work as:
 Gaussian 09, Revision A.02,
 M. J. Frisch, G. W. Trucks, H. B. Schlegel, G. E. Scuseria, 
 M. A. Robb, J. R. Cheeseman, G. Scalmani, V. Barone, B. Mennucci, 
 G. A. Petersson, H. Nakatsuji, M. Caricato, X. Li, H. P. Hratchian, 
 A. F. Izmaylov, J. Bloino, G. Zheng, J. L. Sonnenberg, M. Hada, 
 M. Ehara, K. Toyota, R. Fukuda, J. Hasegawa, M. Ishida, T. Nakajima, 
 Y. Honda, O. Kitao, H. Nakai, T. Vreven, J. A. Montgomery, Jr., 
 J. E. Peralta, F. Ogliaro, M. Bearpark, J. J. Heyd, E. Brothers, 
 K. N. Kudin, V. N. Staroverov, R. Kobayashi, J. Normand, 
 K. Raghavachari, A. Rendell, J. C. Burant, S. S. Iyengar, J. Tomasi, 
 M. Cossi, N. Rega, J. M. Millam, M. Klene, J. E. Knox, J. B. Cross, 
 V. Bakken, C. Adamo, J. Jaramillo, R. Gomperts, R. E. Stratmann, 
 O. Yazyev, A. J. Austin, R. Cammi, C. Pomelli, J. W. Ochterski, 
 R. L. Martin, K. Morokuma, V. G. Zakrzewski, G. A. Voth, 
 P. Salvador, J. J. Dannenberg, S. Dapprich, A. D. Daniels, 
 O. Farkas, J. B. Foresman, J. V. Ortiz, J. Cioslowski, 
 and D. J. Fox, Gaussian, Inc., Wallingford CT, 2009.
 
 ******************************************
 Gaussian 09:  EM64L-G09RevA.02 11-Jun-2009
                 8-Apr-2011 
 ******************************************
 %chk=P3HT_6_cation_B3LYP_631GSTAR_TDDFT.chk
 %mem=11000MB
 %nprocshared=8
 Will use up to    8 processors via shared memory.
 -------------------------------------------------------
 #p sp B3LYP/6-31g* td(singlets,nstates=3) geom=allcheck
 -------------------------------------------------------
 1/29=7,38=1/1;
 2/12=2,40=1/2;
 3/5=1,6=6,7=1,11=2,14=-4,16=1,25=1,30=1,74=-5/1,2,8,3;
 4//1;
 5/5=2,38=5/2;
 8/6=1,10=2,108=3/1;
 9/41=3,42=1,48=1/14;
 6/7=2,8=2,9=2,10=2/1;
 99/5=1,9=1/99;
 Leave Link    1 at Fri Apr  8 11:27:29 2011, MaxMem= 1441792000 cpu:       0.2
 (Enter /apps/gaussian/g09/g09/l101.exe)
 -------------------
 Title Card Required
 -------------------
 Redundant internal coordinates taken from checkpoint file:
 P3HT_6_cation_B3LYP_631GSTAR_TDDFT.chk
 Charge =  1 Multiplicity = 2
 C,0,-8.498404404,0.1243701533,0.
 C,0,-9.0716469943,1.3892442355,0.
 C,0,-10.4847200767,1.3663904729,0.
 C,0,-10.9931386377,0.0889772371,0.
 S,0,-9.7521062297,-1.1099615701,0.
 H,0,-8.4879981016,2.3038745761,0.
 H,0,-11.1050452359,2.2549832259,0.
 H,0,-12.0316366936,-0.2149477834,0.
 C,0,-7.1109239771,-0.2307526705,0.
 C,0,-6.5421782864,-1.5076539452,0.
 S,0,-5.859449083,0.9955010324,0.
 C,0,-5.1464017575,-1.5021541218,0.
 H,0,-7.1372735204,-2.4138984459,0.
 C,0,-4.5852067303,-0.2213682245,0.
 H,0,-4.5472110472,-2.4064868544,0.
 C,0,-3.2151723458,0.1440439657,0.
 C,0,-2.6588573592,1.4334623308,0.
 S,0,-1.9407942213,-1.067009153,0.
 C,0,-1.2691129781,1.4469948161,0.
 H,0,-3.2660457912,2.3318520536,0.
 C,0,-0.68645966,0.1694651019,0.
 H,0,-0.6806368756,2.3580689475,0.
 C,0,0.68645966,-0.1694651019,0.
 C,0,1.2691129781,-1.4469948161,0.
 S,0,1.9407942213,1.067009153,0.
 C,0,2.6588573592,-1.4334623308,0.
 H,0,0.6806368756,-2.3580689475,0.
 C,0,3.2151723458,-0.1440439657,0.
 H,0,3.2660457912,-2.3318520536,0.
 C,0,4.5852067303,0.2213682245,0.
 C,0,5.1464017575,1.5021541218,0.
 S,0,5.859449083,-0.9955010324,0.
 C,0,6.5421782864,1.5076539452,0.
 H,0,4.5472110472,2.4064868544,0.
 C,0,7.1109239771,0.2307526705,0.
 H,0,7.1372735204,2.4138984459,0.
 C,0,8.498404404,-0.1243701533,0.
 C,0,9.0716469943,-1.3892442355,0.
 S,0,9.7521062297,1.1099615701,0.
 C,0,10.4847200767,-1.3663904729,0.
 H,0,8.4879981016,-2.3038745761,0.
 C,0,10.9931386377,-0.0889772371,0.
 H,0,11.1050452359,-2.2549832259,0.
 H,0,12.0316366936,0.2149477834,0.
 Recover connectivity data from disk.
                    Isotopes and Nuclear Properties:
 (Nuclear quadrupole moments (NQMom) in fm**2, nuclear magnetic moments (NMagM)
  in nuclear magnetons)

  Atom         1           2           3           4           5           6           7           8           9          10
 IAtWgt=          12          12          12          12          32           1           1           1          12          12
 AtmWgt=  12.0000000  12.0000000  12.0000000  12.0000000  31.9720718   1.0078250   1.0078250   1.0078250  12.0000000  12.0000000
 NucSpn=           0           0           0           0           0           1           1           1           0           0
 AtZEff=  -3.6000000  -3.6000000  -3.6000000  -3.6000000 -13.6000000  -1.0000000  -1.0000000  -1.0000000  -3.6000000  -3.6000000
 NQMom=    0.0000000   0.0000000   0.0000000   0.0000000   0.0000000   0.0000000   0.0000000   0.0000000   0.0000000   0.0000000
 NMagM=    0.0000000   0.0000000   0.0000000   0.0000000   0.0000000   2.7928460   2.7928460   2.7928460   0.0000000   0.0000000

  Atom        11          12          13          14          15          16          17          18          19          20
 IAtWgt=          32          12           1          12           1          12          12          32          12           1
 AtmWgt=  31.9720718  12.0000000   1.0078250  12.0000000   1.0078250  12.0000000  12.0000000  31.9720718  12.0000000   1.0078250
 NucSpn=           0           0           1           0           1           0           0           0           0           1
 AtZEff= -13.6000000  -3.6000000  -1.0000000  -3.6000000  -1.0000000  -3.6000000  -3.6000000 -13.6000000  -3.6000000  -1.0000000
 NQMom=    0.0000000   0.0000000   0.0000000   0.0000000   0.0000000   0.0000000   0.0000000   0.0000000   0.0000000   0.0000000
 NMagM=    0.0000000   0.0000000   2.7928460   0.0000000   2.7928460   0.0000000   0.0000000   0.0000000   0.0000000   2.7928460

  Atom        21          22          23          24          25          26          27          28          29          30
 IAtWgt=          12           1          12          12          32          12           1          12           1          12
 AtmWgt=  12.0000000   1.0078250  12.0000000  12.0000000  31.9720718  12.0000000   1.0078250  12.0000000   1.0078250  12.0000000
 NucSpn=           0           1           0           0           0           0           1           0           1           0
 AtZEff=  -3.6000000  -1.0000000  -3.6000000  -3.6000000 -13.6000000  -3.6000000  -1.0000000  -3.6000000  -1.0000000  -3.6000000
 NQMom=    0.0000000   0.0000000   0.0000000   0.0000000   0.0000000   0.0000000   0.0000000   0.0000000   0.0000000   0.0000000
 NMagM=    0.0000000   2.7928460   0.0000000   0.0000000   0.0000000   0.0000000   2.7928460   0.0000000   2.7928460   0.0000000

  Atom        31          32          33          34          35          36          37          38          39          40
 IAtWgt=          12          32          12           1          12           1          12          12          32          12
 AtmWgt=  12.0000000  31.9720718  12.0000000   1.0078250  12.0000000   1.0078250  12.0000000  12.0000000  31.9720718  12.0000000
 NucSpn=           0           0           0           1           0           1           0           0           0           0
 AtZEff=  -3.6000000 -13.6000000  -3.6000000  -1.0000000  -3.6000000  -1.0000000  -3.6000000  -3.6000000 -13.6000000  -3.6000000
 NQMom=    0.0000000   0.0000000   0.0000000   0.0000000   0.0000000   0.0000000   0.0000000   0.0000000   0.0000000   0.0000000
 NMagM=    0.0000000   0.0000000   0.0000000   2.7928460   0.0000000   2.7928460   0.0000000   0.0000000   0.0000000   0.0000000

  Atom        41          42          43          44
 IAtWgt=           1          12           1           1
 AtmWgt=   1.0078250  12.0000000   1.0078250   1.0078250
 NucSpn=           1           0           1           1
 AtZEff=  -1.0000000  -3.6000000  -1.0000000  -1.0000000
 NQMom=    0.0000000   0.0000000   0.0000000   0.0000000
 NMagM=    2.7928460   0.0000000   2.7928460   2.7928460
 Leave Link  101 at Fri Apr  8 11:27:29 2011, MaxMem= 1441792000 cpu:       0.9
 (Enter /apps/gaussian/g09/g09/l202.exe)
                          Input orientation:                          
 ---------------------------------------------------------------------
 Center     Atomic      Atomic             Coordinates (Angstroms)
 Number     Number       Type             X           Y           Z
 ---------------------------------------------------------------------
      1          6           0       -8.498404    0.124370    0.000000
      2          6           0       -9.071647    1.389244    0.000000
      3          6           0      -10.484720    1.366390    0.000000
      4          6           0      -10.993139    0.088977    0.000000
      5         16           0       -9.752106   -1.109962    0.000000
      6          1           0       -8.487998    2.303875    0.000000
      7          1           0      -11.105045    2.254983    0.000000
      8          1           0      -12.031637   -0.214948    0.000000
      9          6           0       -7.110924   -0.230753    0.000000
     10          6           0       -6.542178   -1.507654    0.000000
     11         16           0       -5.859449    0.995501    0.000000
     12          6           0       -5.146402   -1.502154    0.000000
     13          1           0       -7.137274   -2.413898    0.000000
     14          6           0       -4.585207   -0.221368    0.000000
     15          1           0       -4.547211   -2.406487    0.000000
     16          6           0       -3.215172    0.144044    0.000000
     17          6           0       -2.658857    1.433462    0.000000
     18         16           0       -1.940794   -1.067009    0.000000
     19          6           0       -1.269113    1.446995    0.000000
     20          1           0       -3.266046    2.331852    0.000000
     21          6           0       -0.686460    0.169465    0.000000
     22          1           0       -0.680637    2.358069    0.000000
     23          6           0        0.686460   -0.169465    0.000000
     24          6           0        1.269113   -1.446995    0.000000
     25         16           0        1.940794    1.067009    0.000000
     26          6           0        2.658857   -1.433462    0.000000
     27          1           0        0.680637   -2.358069    0.000000
     28          6           0        3.215172   -0.144044    0.000000
     29          1           0        3.266046   -2.331852    0.000000
     30          6           0        4.585207    0.221368    0.000000
     31          6           0        5.146402    1.502154    0.000000
     32         16           0        5.859449   -0.995501    0.000000
     33          6           0        6.542178    1.507654    0.000000
     34          1           0        4.547211    2.406487    0.000000
     35          6           0        7.110924    0.230753    0.000000
     36          1           0        7.137274    2.413898    0.000000
     37          6           0        8.498404   -0.124370    0.000000
     38          6           0        9.071647   -1.389244    0.000000
     39         16           0        9.752106    1.109962    0.000000
     40          6           0       10.484720   -1.366390    0.000000
     41          1           0        8.487998   -2.303875    0.000000
     42          6           0       10.993139   -0.088977    0.000000
     43          1           0       11.105045   -2.254983    0.000000
     44          1           0       12.031637    0.214948    0.000000
 ---------------------------------------------------------------------
                    Distance matrix (angstroms):
                    1          2          3          4          5
     1  C    0.000000
     2  C    1.388709   0.000000
     3  C    2.342662   1.413258   0.000000
     4  C    2.494985   2.320091   1.374872   0.000000
     5  S    1.759359   2.590184   2.582449   1.725577   0.000000
     6  H    2.179529   1.084986   2.205850   3.343875   3.640364
     7  H    3.366614   2.210025   1.083698   2.168895   3.626748
     8  H    3.549488   3.366745   2.212144   1.082058   2.448940
     9  C    1.432206   2.543388   3.732742   3.895359   2.783676
    10  C    2.547611   3.845807   4.878910   4.728666   3.234470
    11  S    2.779020   3.236240   4.640118   5.213114   4.425579
    12  C    3.725789   4.875216   6.060214   6.059375   4.622373
    13  H    2.880188   4.266813   5.049355   4.596964   2.921917
    14  C    3.928441   4.766783   6.109438   6.415443   5.242752
    15  H    4.692245   5.905768   7.034815   6.912114   5.363946
    16  C    5.283269   5.987388   7.371598   7.778161   6.656128
    17  C    5.984483   6.412942   7.826150   8.442031   7.535462
    18  S    6.664956   7.542032   8.883699   9.125856   7.811430
    19  C    7.349285   7.802748   9.215960   9.818395   8.859977
    20  H    5.678957   5.881625   7.282951   8.046021   7.342688
    21  C    7.812075   8.473442   9.871096  10.306993   9.155484
    22  H    8.130615   8.446755   9.854109  10.559189   9.711786
    23  C    9.189563   9.881813  11.276263  11.682457  10.480849
    24  C    9.893108  10.722666  12.085848  12.358075  11.026371
    25  S   10.481671  11.017155  12.429120  12.970858  11.893827
    26  C   11.265493  12.065339  13.438482  13.736623  12.415179
    27  H    9.508801  10.447459  11.770165  11.927492  10.507136
    28  C   11.716652  12.382120  13.782905  14.210222  13.003204
    29  H   12.018124  12.886630  14.239402  14.463221  13.075370
    30  C   13.083971  13.706699  15.113364  15.578908  14.398992
    31  C   13.714191  14.218497  15.631711  16.201291  15.125762
    32  S   14.401461  15.120339  16.513946  16.887445  15.611975
    33  C   15.104059  15.614274  17.027484  17.592612  16.503200
    34  H   13.243721  13.656796  15.067872  15.712203  14.725348
    35  C   15.609691  16.223986  17.632253  18.104618  16.916244
    36  H   15.802416  16.241275  17.653100  18.278870  17.253079
    37  C   16.998629  17.635128  19.041570  19.492711  18.277104
    38  C   17.635128  18.354812  19.749557  20.119164  18.825825
    39  S   18.277104  18.825825  20.238451  20.770354  19.630139
    40  C   19.041570  19.749557  21.146761  21.527111  20.238451
    41  H   17.159086  17.943808  19.324463  19.627543  18.279137
    42  C   19.492711  20.119164  21.527111  21.986997  20.770354
    43  H   19.747318  20.503153  21.891375  22.222148  20.888558
    44  H   20.530241  21.135930  22.545779  23.025120  21.823997
                    6          7          8          9         10
     6  H    0.000000
     7  H    2.617504   0.000000
     8  H    4.347625   2.638016   0.000000
     9  C    2.884557   4.704454   4.920738   0.000000
    10  C    4.279482   5.914152   5.639614   1.397837   0.000000
    11  S    2.936173   5.394680   6.289760   1.752109   2.594591
    12  C    5.064792   7.044254   7.004524   2.340045   1.395787
    13  H    4.907325   6.127126   5.365648   2.183305   1.084167
    14  C    4.648509   6.974282   7.446433   2.525735   2.341852
    15  H    6.141442   8.045775   7.798684   3.362505   2.188103
    16  C    5.698031   8.167384   8.823770   3.913739   3.714441
    17  C    5.893768   8.486047   9.516630   4.752947   4.871380
    18  S    7.364016   9.747776  10.126752   5.237324   4.622435
    19  C    7.269563   9.869063  10.890086   6.077960   6.044433
    20  H    5.222027   7.839376   9.128076   4.620609   5.047262
    21  C    8.088245  10.625268  11.351688   6.436918   6.091155
    22  H    7.807549  10.424918  11.638970   6.931853   7.021501
    23  C    9.502004  12.038170  12.718178   7.797624   7.351459
    24  C   10.453241  12.916053  13.357690   8.467837   7.811527
    25  S   10.501883  13.099817  14.031117   9.144276   8.865084
    26  C   11.756703  14.249549  14.740943   9.843533   9.201335
    27  H   10.285795  12.656325  12.891659   8.076750   7.272707
    28  C   11.956442  14.519778  15.246974  10.326460   9.852174
    29  H   12.635170  15.085334  15.443457  10.587546   9.842792
    30  C   13.238033  15.821492  16.622571  11.704866  11.260915
    31  C   13.657951  16.268875  17.263645  12.379216  12.069874
    32  S   14.721927  17.273092  17.908105  12.992899  12.412198
    33  C   15.051251  17.663040  18.653524  13.763330  13.427303
    34  H   13.035613  15.652989  16.784818  11.952704  11.759892
    35  C   15.736080  18.328094  19.147749  14.229334  13.763330
    36  H   15.625659  18.243011  19.348332  14.491560  14.230459
    37  C   17.159086  19.747318  20.530241  15.609691  15.104059
    38  C   17.943808  20.503153  21.135930  16.223986  15.614274
    39  S   18.279137  20.888558  21.823997  16.916244  16.503200
    40  C   19.324463  21.891375  22.545779  17.632253  17.027484
    41  H   17.590219  20.116424  20.625689  15.736080  15.051251
    42  C   19.627543  22.222148  23.025120  18.104618  17.592612
    43  H   20.116424  22.663361  23.226446  18.328094  17.663040
    44  H   20.625689  23.226446  24.067113  19.147749  18.653524
                   11         12         13         14         15
    11  S    0.000000
    12  C    2.597444   0.000000
    13  H    3.640994   2.189714   0.000000
    14  C    1.761949   1.398339   3.364555   0.000000
    15  H    3.646298   1.084826   2.590073   2.185449   0.000000
    16  C    2.777981   2.537640   4.682515   1.417928   2.877418
    17  C    3.230418   3.847820   5.904100   2.539544   4.279146
    18  S    4.428296   3.235007   5.368194   2.776333   2.930462
    19  C    4.612487   4.871432   7.024372   3.712131   5.059175
    20  H    2.917460   4.270286   6.124423   2.873868   4.908487
    21  C    5.238526   4.762919   6.948868   3.918288   4.641221
    22  H    5.355062   5.902913   8.028688   4.679654   6.136073
    23  C    6.648764   5.983171   8.139305   5.271922   5.691711
    24  C    7.535395   6.415752   8.461810   5.981239   5.894934
    25  S    7.800571   7.538498   9.722553   6.651962   7.359306
    26  C    8.857844   7.805561   9.845072   7.344769   7.271465
    27  H    7.349773   5.889564   7.818110   5.682834   5.228072
    28  C    9.145891   8.471150  10.598367   7.800762   8.085372
    29  H    9.713184   8.453264  10.403643   8.129964   7.813613
    30  C   10.473305   9.883053  12.015039   9.181095   9.502983
    31  C   11.017507  10.722298  12.892794   9.883053  10.451966
    32  S   11.886827  11.017507  13.073892  10.473305  10.501879
    33  C   12.412198  12.069874  14.230459  11.260915  11.759892
    34  H   10.501879  10.451966  12.639751   9.502983  10.289472
    35  C   12.992899  12.379216  14.491560  11.704866  11.952704
    36  H   13.073892  12.892794  15.068853  12.015039  12.639751
    37  C   14.401461  13.714191  15.802416  13.083971  13.243721
    38  C   15.120339  14.218497  16.241275  13.706699  13.656796
    39  S   15.611975  15.125762  17.253079  14.398992  14.725348
    40  C   16.513946  15.631711  17.653100  15.113364  15.067872
    41  H   14.721927  13.657951  15.625659  13.238033  13.035613
    42  C   16.887445  16.201291  18.278870  15.578908  15.712203
    43  H   17.273092  16.268875  18.243011  15.821492  15.652989
    44  H   17.908105  17.263645  19.348332  16.622571  16.784818
                   16         17         18         19         20
    16  C    0.000000
    17  C    1.404310   0.000000
    18  S    1.758036   2.601533   0.000000
    19  C    2.341971   1.389810   2.602186   0.000000
    20  H    2.188399   1.084335   3.648088   2.184196   0.000000
    21  C    2.528840   2.342657   1.761313   1.404125   3.366034
    22  H    3.365379   2.183633   3.649542   1.084601   2.585542
    23  C    3.914207   3.709518   2.776337   2.537165   4.677487
    24  C    4.758174   4.870933   3.232320   3.849385   5.903164
    25  S    5.237925   4.614226   4.429533   3.232320   5.358266
    26  C    6.082167   6.041303   4.614226   4.870933   7.020119
    27  H    4.630108   5.052517   2.922112   4.275516   6.129573
    28  C    6.436795   6.082167   5.237925   4.758174   6.938029
    29  H    6.938029   7.020119   5.358266   5.903164   8.026105
    30  C    7.800762   7.344769   6.651962   5.981239   8.129964
    31  C    8.471150   7.805561   7.538498   6.415752   8.453264
    32  S    9.145891   8.857844   7.800571   7.535395   9.713184
    33  C    9.852174   9.201335   8.865084   7.811527   9.842792
    34  H    8.085372   7.271465   7.359306   5.894934   7.813613
    35  C   10.326460   9.843533   9.144276   8.467837  10.587546
    36  H   10.598367   9.845072   9.722553   8.461810  10.403643
    37  C   11.716652  11.265493  10.481671   9.893108  12.018124
    38  C   12.382120  12.065339  11.017155  10.722666  12.886630
    39  S   13.003204  12.415179  11.893827  11.026371  13.075370
    40  C   13.782905  13.438482  12.429120  12.085848  14.239402
    41  H   11.956442  11.756703  10.501883  10.453241  12.635170
    42  C   14.210222  13.736623  12.970858  12.358075  14.463221
    43  H   14.519778  14.249549  13.099817  12.916053  15.085334
    44  H   15.246974  14.740943  14.031117  13.357690  15.443457
                   21         22         23         24         25
    21  C    0.000000
    22  H    2.188612   0.000000
    23  C    1.414136   2.873566   0.000000
    24  C    2.537165   4.275516   1.404125   0.000000
    25  S    2.776337   2.922112   1.761313   2.602186   0.000000
    26  C    3.709518   5.052517   2.342657   1.389810   2.601533
    27  H    2.873566   4.908668   2.188612   1.084601   3.649542
    28  C    3.914207   4.630108   2.528840   2.341971   1.758036
    29  H    4.677487   6.129573   3.366034   2.184196   3.648088
    30  C    5.271922   5.682834   3.918288   3.712131   2.776333
    31  C    5.983171   5.889564   4.762919   4.871432   3.235007
    32  S    6.648764   7.349773   5.238526   4.612487   4.428296
    33  C    7.351459   7.272707   6.091155   6.044433   4.622435
    34  H    5.691711   5.228072   4.641221   5.059175   2.930462
    35  C    7.797624   8.076750   6.436918   6.077960   5.237324
    36  H    8.139305   7.818110   6.948868   7.024372   5.368194
    37  C    9.189563   9.508801   7.812075   7.349285   6.664956
    38  C    9.881813  10.447459   8.473442   7.802748   7.542032
    39  S   10.480849  10.507136   9.155484   8.859977   7.811430
    40  C   11.276263  11.770165   9.871096   9.215960   8.883699
    41  H    9.502004  10.285795   8.088245   7.269563   7.364016
    42  C   11.682457  11.927492  10.306993   9.818395   9.125856
    43  H   12.038170  12.656325  10.625268   9.869063   9.747776
    44  H   12.718178  12.891659  11.351688  10.890086  10.126752
                   26         27         28         29         30
    26  C    0.000000
    27  H    2.183633   0.000000
    28  C    1.404310   3.365379   0.000000
    29  H    1.084335   2.585542   2.188399   0.000000
    30  C    2.539544   4.679654   1.417928   2.873868   0.000000
    31  C    3.847820   5.902913   2.537640   4.270286   1.398339
    32  S    3.230418   5.355062   2.777981   2.917460   1.761949
    33  C    4.871380   7.021501   3.714441   5.047262   2.341852
    34  H    4.279146   6.136073   2.877418   4.908487   2.185449
    35  C    4.752947   6.931853   3.913739   4.620609   2.525735
    36  H    5.904100   8.028688   4.682515   6.124423   3.364555
    37  C    5.984483   8.130615   5.283269   5.678957   3.928441
    38  C    6.412942   8.446755   5.987388   5.881625   4.766783
    39  S    7.535462   9.711786   6.656128   7.342688   5.242752
    40  C    7.826150   9.854109   7.371598   7.282951   6.109438
    41  H    5.893768   7.807549   5.698031   5.222027   4.648509
    42  C    8.442031  10.559189   7.778161   8.046021   6.415443
    43  H    8.486047  10.424918   8.167384   7.839376   6.974282
    44  H    9.516630  11.638970   8.823770   9.128076   7.446433
                   31         32         33         34         35
    31  C    0.000000
    32  S    2.597444   0.000000
    33  C    1.395787   2.594591   0.000000
    34  H    1.084826   3.646298   2.188103   0.000000
    35  C    2.340045   1.752109   1.397837   3.362505   0.000000
    36  H    2.189714   3.640994   1.084167   2.590073   2.183305
    37  C    3.725789   2.779020   2.547611   4.692245   1.432206
    38  C    4.875216   3.236240   3.845807   5.905768   2.543388
    39  S    4.622373   4.425579   3.234470   5.363946   2.783676
    40  C    6.060214   4.640118   4.878910   7.034815   3.732742
    41  H    5.064792   2.936173   4.279482   6.141442   2.884557
    42  C    6.059375   5.213114   4.728666   6.912114   3.895359
    43  H    7.044254   5.394680   5.914152   8.045775   4.704454
    44  H    7.004524   6.289760   5.639614   7.798684   4.920738
                   36         37         38         39         40
    36  H    0.000000
    37  C    2.880188   0.000000
    38  C    4.266813   1.388709   0.000000
    39  S    2.921917   1.759359   2.590184   0.000000
    40  C    5.049355   2.342662   1.413258   2.582449   0.000000
    41  H    4.907325   2.179529   1.084986   3.640364   2.205850
    42  C    4.596964   2.494985   2.320091   1.725577   1.374872
    43  H    6.127126   3.366614   2.210025   3.626748   1.083698
    44  H    5.365648   3.549488   3.366745   2.448940   2.212144
                   41         42         43         44
    41  H    0.000000
    42  C    3.343875   0.000000
    43  H    2.617504   2.168895   0.000000
    44  H    4.347625   1.082058   2.638016   0.000000
 Stoichiometry    C24H14S6(1+,2)
 Framework group  C2H[SGH(C24H14S6)]
 Deg. of freedom    43
 Full point group                 C2H     NOp   4
 Largest Abelian subgroup         C2H     NOp   4
 Largest concise Abelian subgroup C2      NOp   2
                         Standard orientation:                         
 ---------------------------------------------------------------------
 Center     Atomic      Atomic             Coordinates (Angstroms)
 Number     Number       Type             X           Y           Z
 ---------------------------------------------------------------------
      1          6           0        1.867297    8.291655    0.000000
      2          6           0        0.771637    9.144909    0.000000
      3          6           0        1.124447   10.513420    0.000000
      4          6           0        2.485356   10.708876    0.000000
      5         16           0        3.360680    9.221791    0.000000
      6          1           0       -0.254156    8.791436    0.000000
      7          1           0        0.405641   11.324418    0.000000
      8          1           0        3.023804   11.647450    0.000000
      9          6           0        1.887962    6.859598    0.000000
     10          6           0        2.996368    6.007903    0.000000
     11         16           0        0.402954    5.929738    0.000000
     12          6           0        2.664476    4.652148    0.000000
     13          1           0        4.016686    6.374466    0.000000
     14          6           0        1.287942    4.406170    0.000000
     15          1           0        3.403530    3.858016    0.000000
     16          6           0        0.612149    3.159645    0.000000
     17          6           0       -0.771637    2.920430    0.000000
     18         16           0        1.491450    1.637305    0.000000
     19          6           0       -1.109927    1.572420    0.000000
     20          1           0       -1.503042    3.720948    0.000000
     21          6           0       -0.004164    0.707056    0.000000
     22          1           0       -2.133392    1.213422    0.000000
     23          6           0        0.004164   -0.707056    0.000000
     24          6           0        1.109927   -1.572420    0.000000
     25         16           0       -1.491450   -1.637305    0.000000
     26          6           0        0.771637   -2.920430    0.000000
     27          1           0        2.133392   -1.213422    0.000000
     28          6           0       -0.612149   -3.159645    0.000000
     29          1           0        1.503042   -3.720948    0.000000
     30          6           0       -1.287942   -4.406170    0.000000
     31          6           0       -2.664476   -4.652148    0.000000
     32         16           0       -0.402954   -5.929738    0.000000
     33          6           0       -2.996368   -6.007903    0.000000
     34          1           0       -3.403530   -3.858016    0.000000
     35          6           0       -1.887962   -6.859598    0.000000
     36          1           0       -4.016686   -6.374466    0.000000
     37          6           0       -1.867297   -8.291655    0.000000
     38          6           0       -0.771637   -9.144909    0.000000
     39         16           0       -3.360680   -9.221791    0.000000
     40          6           0       -1.124447  -10.513420    0.000000
     41          1           0        0.254156   -8.791436    0.000000
     42          6           0       -2.485356  -10.708876    0.000000
     43          1           0       -0.405641  -11.324418    0.000000
     44          1           0       -3.023804  -11.647450    0.000000
 ---------------------------------------------------------------------
 Rotational constants (GHZ):      0.8637701      0.0224954      0.0219244
 Leave Link  202 at Fri Apr  8 11:27:29 2011, MaxMem= 1441792000 cpu:       0.0
 (Enter /apps/gaussian/g09/g09/l301.exe)
 Standard basis: 6-31G(d) (6D, 7F)
 Ernie: Thresh=  0.10000D-02 Tol=  0.10000D-05 Strict=F.
 There are   188 symmetry adapted basis functions of AG  symmetry.
 There are    63 symmetry adapted basis functions of BG  symmetry.
 There are    63 symmetry adapted basis functions of AU  symmetry.
 There are   188 symmetry adapted basis functions of BU  symmetry.
 Integral buffers will be    131072 words long.
 Raffenetti 2 integral format.
 Two-electron integral symmetry is turned on.
   502 basis functions,  1040 primitive gaussians,   502 cartesian basis functions
   127 alpha electrons      126 beta electrons
       nuclear repulsion energy      3213.9194635806 Hartrees.
 IExCor=  402 DFT=T Ex+Corr=B3LYP ExCW=0 ScaHFX=  0.200000
 ScaDFX=  0.800000  0.720000  1.000000  0.810000 ScalE2=  1.000000  1.000000
 IRadAn=      0 IRanWt=     -1 IRanGd=            0 ICorTp=0
 NAtoms=   44 NActive=   44 NUniq=   22 SFac= 3.00D+00 NAtFMM=   80 NAOKFM=F Big=F
 Leave Link  301 at Fri Apr  8 11:27:29 2011, MaxMem= 1441792000 cpu:       0.4
 (Enter /apps/gaussian/g09/g09/l302.exe)
 NPDir=0 NMtPBC=     1 NCelOv=     1 NCel=       1 NClECP=     1 NCelD=      1
         NCelK=      1 NCelE2=     1 NClLst=     1 CellRange=     0.0.
 One-electron integrals computed using PRISM.
 One-electron integral symmetry used in STVInt
 NBasis=   502 RedAO= T  NBF=   188    63    63   188
 NBsUse=   502 1.00D-06 NBFU=   188    63    63   188
 Precomputing XC quadrature grid using
 IXCGrd= 2 IRadAn=           0 IRanWt=          -1 IRanGd=           0 AccXCQ= 1.00D-10.
 NRdTot=    2866 NPtTot=      367408 NUsed=      388055 NTot=      388087
 NSgBfM=   407   407   408   408   408 NAtAll=    44    44.
 Leave Link  302 at Fri Apr  8 11:27:30 2011, MaxMem= 1441792000 cpu:       5.5
 (Enter /apps/gaussian/g09/g09/l308.exe)
 Leave Link  308 at Fri Apr  8 11:27:30 2011, MaxMem= 1441792000 cpu:       1.3
 (Enter /apps/gaussian/g09/g09/l303.exe)
 DipDrv:  MaxL=1.
 Leave Link  303 at Fri Apr  8 11:27:30 2011, MaxMem= 1441792000 cpu:       0.8
 (Enter /apps/gaussian/g09/g09/l401.exe)
 Harris functional with IExCor=  402 diagonalized for initial guess.
 ExpMin= 1.17D-01 ExpMax= 2.19D+04 ExpMxC= 3.30D+03 IAcc=1 IRadAn=         1 AccDes= 0.00D+00
 HarFok:  IExCor=  402 AccDes= 0.00D+00 IRadAn=         1 IDoV= 1
 ScaDFX=  1.000000  1.000000  1.000000  1.000000
 FoFCou: FMM=F IPFlag=           0 FMFlag=      100000 FMFlg1=           0
         NFxFlg=           0 DoJE=T BraDBF=F KetDBF=T FulRan=T
         Omega=  0.000000  0.000000  1.000000  0.000000  0.000000 ICntrl=     500 IOpCl=  0
         NMat0=    1 NMatS0=    1 NMatT0=    0 NMatD0=    1 NMtDS0=    0 NMtDT0=    0
         I1Cent=           4 NGrid=           0.
 Petite list used in FoFCou.
 Harris En= -3311.99597737259    
 Initial guess orbital symmetries:
 Alpha Orbitals:
       Occupied  (BU) (AG) (BU) (AG) (BU) (AG) (AG) (BU) (AG) (BU)
                 (BU) (AG) (AG) (BU) (AG) (BU) (BU) (AG) (BU) (AG)
                 (AG) (BU) (AG) (AG) (BU) (BU) (AG) (BU) (AG) (BU)
                 (BU) (AG) (BU) (AG) (AG) (BU) (BU) (AG) (BU) (AG)
                 (AG) (BU) (AG) (BU) (AG) (BU) (AU) (BG) (AG) (BU)
                 (BG) (AU) (AU) (BG) (AG) (BU) (AG) (BU) (AG) (BU)
                 (AG) (BU) (AG) (BU) (AG) (BU) (AG) (BU) (AG) (BU)
                 (AG) (BU) (BU) (AG) (AG) (BU) (AG) (BU) (AG) (BU)
                 (AG) (BU) (AG) (BU) (AG) (BU) (AG) (BU) (AG) (BU)
                 (AG) (BU) (AG) (BU) (BU) (AG) (AG) (BU) (AG) (AU)
                 (BU) (BG) (AU) (AG) (BG) (AU) (BU) (BG) (AG) (BU)
                 (AG) (AU) (BU) (AG) (BU) (AG) (BG) (AU) (BG) (AU)
                 (BG) (AU) (BG) (AU) (BG) (AU) (BG)
       Virtual   (AU) (BG) (AU) (BG) (AU) (BG) (AU) (BU) (AG) (AG)
                 (BU) (AG) (BU) (BG) (AU) (BU) (BG) (AU) (BG) (AG)
                 (AG) (BU) (BU) (AG) (BU) (AG) (BU) (AG) (BU) (AG)
                 (BU) (AG) (BU) (AG) (BU) (AG) (BU) (AG) (BU) (BU)
                 (AG) (BU) (AG) (AG) (BU) (BU) (AG) (AG) (BU) (BU)
                 (AG) (AG) (BU) (BU) (AG) (AG) (BU) (AG) (BU) (BU)
                 (AG) (AG) (BU) (AG) (BU) (AU) (BG) (AU) (BG) (AU)
                 (BG) (AG) (BU) (BU) (AG) (AG) (BU) (AG) (BU) (AG)
                 (BU) (AG) (BU) (AG) (BU) (AG) (BU) (AU) (BG) (AG)
                 (BG) (BU) (AU) (BG) (BU) (AG) (AU) (AG) (BU) (AU)
                 (AG) (BU) (BG) (AG) (BU) (BU) (AG) (BG) (AU) (AU)
                 (BG) (BG) (AU) (BG) (AU) (BG) (AU) (BG) (AU) (BG)
                 (AU) (AU) (BG) (AG) (BU) (AG) (BU) (BU) (AG) (AG)
                 (BU) (AG) (BU) (AG) (BU) (BU) (AG) (AG) (BU) (BU)
                 (AG) (AG) (BU) (AG) (BG) (AU) (BU) (AU) (BG) (BU)
                 (AU) (BG) (AU) (AG) (AG) (BU) (BU) (AG) (BU) (AG)
                 (BU) (AG) (AG) (BG) (BU) (AU) (AG) (BU) (BG) (BU)
                 (AG) (AU) (BU) (BG) (AG) (AG) (BU) (AG) (BU) (BU)
                 (AG) (AG) (BU) (BU) (AG) (AG) (AG) (BU) (BU) (AG)
                 (BU) (AG) (BU) (AG) (BU) (AG) (AG) (BU) (BU) (AG)
                 (BU) (AG) (BU) (AU) (BG) (AU) (BU) (AG) (BG) (BU)
                 (AU) (AG) (BG) (AU) (BG) (AU) (BU) (BG) (AU) (AG)
                 (AG) (BU) (BU) (BG) (AU) (AG) (AG) (BU) (AG) (BG)
                 (AU) (BG) (BG) (AU) (BU) (AG) (BU) (AG) (BU) (AG)
                 (BU) (BU) (BG) (AU) (AU) (AG) (BG) (AU) (AG) (BU)
                 (BU) (AG) (BG) (AU) (AG) (BU) (AG) (BU) (AG) (BU)
                 (AG) (BU) (AG) (BU) (AG) (AG) (BU) (BG) (BG) (AU)
                 (BU) (AG) (AU) (BG) (BU) (AG) (BU) (BU) (AG) (AG)
                 (BU) (AG) (BU) (BG) (AU) (AG) (AU) (BG) (AU) (BU)
                 (AG) (BG) (AU) (AG) (BU) (BU) (AG) (BU) (AG) (BU)
                 (BU) (AG) (BU) (AG) (BG) (AG) (AU) (BG) (AU) (BG)
                 (BU) (AU) (BG) (AU) (AG) (BG) (AU) (BG) (BU) (AG)
                 (BU) (BU) (AG) (BU) (AG) (AG) (BU) (AG) (BU) (AG)
                 (BU) (AG) (BU) (AG) (BU) (BU) (AG) (AG) (BU) (BU)
                 (AG) (AG) (BU) (AG) (BU) (AG) (BU) (AG) (BU) (AG)
                 (BU) (AG) (BU) (BU) (AG) (AG) (BU) (BU) (AG) (AG)
                 (BU) (AG) (BU) (AG) (BU) (AG) (BU) (AG) (BU) (AG)
                 (BU) (AG) (BU) (BU) (AG)
 Beta  Orbitals:
       Occupied  (BU) (AG) (BU) (AG) (BU) (AG) (AG) (BU) (AG) (BU)
                 (BU) (AG) (AG) (BU) (AG) (BU) (BU) (AG) (BU) (AG)
                 (AG) (BU) (AG) (AG) (BU) (BU) (AG) (BU) (AG) (BU)
                 (BU) (AG) (BU) (AG) (AG) (BU) (BU) (AG) (BU) (AG)
                 (AG) (BU) (AG) (BU) (AG) (BU) (AU) (BG) (AG) (BU)
                 (BG) (AU) (AU) (BG) (AG) (BU) (AG) (BU) (AG) (BU)
                 (AG) (BU) (AG) (BU) (AG) (BU) (AG) (BU) (AG) (BU)
                 (AG) (BU) (BU) (AG) (AG) (BU) (AG) (BU) (AG) (BU)
                 (AG) (BU) (AG) (BU) (AG) (BU) (AG) (BU) (AG) (BU)
                 (AG) (BU) (AG) (BU) (BU) (AG) (AG) (BU) (AG) (AU)
                 (BU) (BG) (AU) (AG) (BG) (AU) (BU) (BG) (AG) (BU)
                 (AG) (AU) (BU) (AG) (BU) (AG) (BG) (AU) (BG) (AU)
                 (BG) (AU) (BG) (AU) (BG) (AU)
       Virtual   (BG) (AU) (BG) (AU) (BG) (AU) (BG) (AU) (BU) (AG)
                 (AG) (BU) (AG) (BU) (BG) (AU) (BU) (BG) (AU) (BG)
                 (AG) (AG) (BU) (BU) (AG) (BU) (AG) (BU) (AG) (BU)
                 (AG) (BU) (AG) (BU) (AG) (BU) (AG) (BU) (AG) (BU)
                 (BU) (AG) (BU) (AG) (AG) (BU) (BU) (AG) (AG) (BU)
                 (BU) (AG) (AG) (BU) (BU) (AG) (AG) (BU) (AG) (BU)
                 (BU) (AG) (AG) (BU) (AG) (BU) (AU) (BG) (AU) (BG)
                 (AU) (BG) (AG) (BU) (BU) (AG) (AG) (BU) (AG) (BU)
                 (AG) (BU) (AG) (BU) (AG) (BU) (AG) (BU) (AU) (BG)
                 (AG) (BG) (BU) (AU) (BG) (BU) (AG) (AU) (AG) (BU)
                 (AU) (AG) (BU) (BG) (AG) (BU) (BU) (AG) (BG) (AU)
                 (AU) (BG) (BG) (AU) (BG) (AU) (BG) (AU) (BG) (AU)
                 (BG) (AU) (AU) (BG) (AG) (BU) (AG) (BU) (BU) (AG)
                 (AG) (BU) (AG) (BU) (AG) (BU) (BU) (AG) (AG) (BU)
                 (BU) (AG) (AG) (BU) (AG) (BG) (AU) (BU) (AU) (BG)
                 (BU) (AU) (BG) (AU) (AG) (AG) (BU) (BU) (AG) (BU)
                 (AG) (BU) (AG) (AG) (BG) (BU) (AU) (AG) (BU) (BG)
                 (BU) (AG) (AU) (BU) (BG) (AG) (AG) (BU) (AG) (BU)
                 (BU) (AG) (AG) (BU) (BU) (AG) (AG) (AG) (BU) (BU)
                 (AG) (BU) (AG) (BU) (AG) (BU) (AG) (AG) (BU) (BU)
                 (AG) (BU) (AG) (BU) (AU) (BG) (AU) (BU) (AG) (BG)
                 (BU) (AU) (AG) (BG) (AU) (BG) (AU) (BU) (BG) (AU)
                 (AG) (AG) (BU) (BU) (BG) (AU) (AG) (AG) (BU) (AG)
                 (BG) (AU) (BG) (BG) (AU) (BU) (AG) (BU) (AG) (BU)
                 (AG) (BU) (BU) (BG) (AU) (AU) (AG) (BG) (AU) (AG)
                 (BU) (BU) (AG) (BG) (AU) (AG) (BU) (AG) (BU) (AG)
                 (BU) (AG) (BU) (AG) (BU) (AG) (AG) (BU) (BG) (BG)
                 (AU) (BU) (AG) (AU) (BG) (BU) (AG) (BU) (BU) (AG)
                 (AG) (BU) (AG) (BU) (BG) (AU) (AG) (AU) (BG) (AU)
                 (BU) (AG) (BG) (AU) (AG) (BU) (BU) (AG) (BU) (AG)
                 (BU) (BU) (AG) (BU) (AG) (BG) (AG) (AU) (BG) (AU)
                 (BG) (BU) (AU) (BG) (AU) (AG) (BG) (AU) (BG) (BU)
                 (AG) (BU) (BU) (AG) (BU) (AG) (AG) (BU) (AG) (BU)
                 (AG) (BU) (AG) (BU) (AG) (BU) (BU) (AG) (AG) (BU)
                 (BU) (AG) (AG) (BU) (AG) (BU) (AG) (BU) (AG) (BU)
                 (AG) (BU) (AG) (BU) (BU) (AG) (AG) (BU) (BU) (AG)
                 (AG) (BU) (AG) (BU) (AG) (BU) (AG) (BU) (AG) (BU)
                 (AG) (BU) (AG) (BU) (BU) (AG)
 The electronic state of the initial guess is 2-BG.
 Initial guess <Sx>= 0.0000 <Sy>= 0.0000 <Sz>= 0.5000 <S**2>= 0.7500 S= 0.5000
 Leave Link  401 at Fri Apr  8 11:27:32 2011, MaxMem= 1441792000 cpu:       9.5
 (Enter /apps/gaussian/g09/g09/l502.exe)
 UHF open shell SCF:
 Requested convergence on RMS density matrix=1.00D-08 within 128 cycles.
 Requested convergence on MAX density matrix=1.00D-06.
 Requested convergence on             energy=1.00D-06.
 No special actions if energy rises.
 Using DIIS extrapolation, IDIIS=  1040.
 Integral symmetry usage will be decided dynamically.
       387646 words used for storage of precomputed grid.
 IEnd=     1170540 IEndB=     1170540 NGot=  1441792000 MDV=  1440890607
 LenX=  1440890607 LenY=  1440638101
 Fock matrices will be formed incrementally for  20 cycles.
 Integral accuracy reduced to 1.0D-05 until final iterations.

 Cycle   1  Pass 0  IDiag  1:
 FoFCou: FMM=F IPFlag=           0 FMFlag=      100000 FMFlg1=           0
         NFxFlg=           0 DoJE=F BraDBF=F KetDBF=F FulRan=T
         Omega=  0.000000  0.000000  1.000000  0.000000  0.000000 ICntrl=       0 IOpCl=  1
         NMat0=    1 NMatS0=    1 NMatT0=    0 NMatD0=    1 NMtDS0=    0 NMtDT0=    0
         I1Cent=           0 NGrid=           0.
 Petite list used in FoFCou.
 E= -3310.78055150428    
 DIIS: error= 4.16D-02 at cycle   1 NSaved=   1.
 NSaved= 1 IEnMin= 1 EnMin= -3310.78055150428     IErMin= 1 ErrMin= 4.16D-02
 ErrMax= 4.16D-02 EMaxC= 1.00D-01 BMatC= 3.78D+00 BMatP= 3.78D+00
 IDIUse=3 WtCom= 5.84D-01 WtEn= 4.16D-01
 Coeff-Com:  0.100D+01
 Coeff-En:   0.100D+01
 Coeff:      0.100D+01
 Gap=     0.017 Goal=   None    Shift=    0.000
 Gap=     0.038 Goal=   None    Shift=    0.000
 GapD=    0.017 DampG=0.250 DampE=0.500 DampFc=0.2500 IDamp=-1.
 Damping current iteration by 2.50D-01
 RMSDP=6.11D-03 MaxDP=2.92D-01              OVMax= 5.35D-01

 Cycle   2  Pass 0  IDiag  1:
 RMSU=  1.07D-03    CP:  9.92D-01
 E= -3311.20139499571     Delta-E=       -0.420843491424 Rises=F Damp=T
 DIIS: error= 2.05D-02 at cycle   2 NSaved=   2.
 NSaved= 2 IEnMin= 2 EnMin= -3311.20139499571     IErMin= 2 ErrMin= 2.05D-02
 ErrMax= 2.05D-02 EMaxC= 1.00D-01 BMatC= 6.71D-01 BMatP= 3.78D+00
 IDIUse=3 WtCom= 7.95D-01 WtEn= 2.05D-01
 Coeff-Com: -0.586D+00 0.159D+01
 Coeff-En:   0.000D+00 0.100D+01
 Coeff:     -0.466D+00 0.147D+01
 Gap=     0.096 Goal=   None    Shift=    0.000
 Gap=     0.062 Goal=   None    Shift=    0.000
 RMSDP=1.57D-03 MaxDP=5.73D-02 DE=-4.21D-01 OVMax= 5.04D-01

 Cycle   3  Pass 0  IDiag  1:
 RMSU=  9.72D-04    CP:  9.80D-01  1.44D+00
 E= -3311.80537170141     Delta-E=       -0.603976705702 Rises=F Damp=F
 DIIS: error= 1.25D-02 at cycle   3 NSaved=   3.
 NSaved= 3 IEnMin= 3 EnMin= -3311.80537170141     IErMin= 3 ErrMin= 1.25D-02
 ErrMax= 1.25D-02 EMaxC= 1.00D-01 BMatC= 1.88D-01 BMatP= 6.71D-01
 IDIUse=3 WtCom= 8.75D-01 WtEn= 1.25D-01
 Coeff-Com: -0.220D+00 0.705D+00 0.515D+00
 Coeff-En:   0.000D+00 0.000D+00 0.100D+01
 Coeff:     -0.192D+00 0.617D+00 0.575D+00
 Gap=     0.093 Goal=   None    Shift=    0.000
 Gap=     0.038 Goal=   None    Shift=    0.000
 RMSDP=1.04D-03 MaxDP=4.24D-02 DE=-6.04D-01 OVMax= 3.16D-01

 Cycle   4  Pass 0  IDiag  1:
 RMSU=  5.86D-04    CP:  9.81D-01  1.35D+00  6.51D-01
 E= -3311.82554622761     Delta-E=       -0.020174526203 Rises=F Damp=F
 DIIS: error= 1.59D-02 at cycle   4 NSaved=   4.
 NSaved= 4 IEnMin= 4 EnMin= -3311.82554622761     IErMin= 3 ErrMin= 1.25D-02
 ErrMax= 1.59D-02 EMaxC= 1.00D-01 BMatC= 1.15D-01 BMatP= 1.88D-01
 IDIUse=3 WtCom= 8.41D-01 WtEn= 1.59D-01
 Coeff-Com:  0.209D-01 0.418D-01 0.439D+00 0.499D+00
 Coeff-En:   0.000D+00 0.000D+00 0.421D+00 0.579D+00
 Coeff:      0.176D-01 0.351D-01 0.436D+00 0.511D+00
 Gap=     0.092 Goal=   None    Shift=    0.000
 Gap=     0.044 Goal=   None    Shift=    0.000
 RMSDP=5.99D-04 MaxDP=2.50D-02 DE=-2.02D-02 OVMax= 2.13D-01

 Cycle   5  Pass 0  IDiag  1:
 RMSU=  1.63D-04    CP:  9.82D-01  1.34D+00  8.31D-01  4.57D-01
 E= -3311.86199969768     Delta-E=       -0.036453470075 Rises=F Damp=F
 DIIS: error= 3.70D-03 at cycle   5 NSaved=   5.
 NSaved= 5 IEnMin= 5 EnMin= -3311.86199969768     IErMin= 5 ErrMin= 3.70D-03
 ErrMax= 3.70D-03 EMaxC= 1.00D-01 BMatC= 1.47D-02 BMatP= 1.15D-01
 IDIUse=3 WtCom= 9.63D-01 WtEn= 3.70D-02
 Coeff-Com:  0.277D-01-0.247D-01 0.247D+00 0.346D+00 0.404D+00
 Coeff-En:   0.000D+00 0.000D+00 0.000D+00 0.816D-01 0.918D+00
 Coeff:      0.267D-01-0.238D-01 0.238D+00 0.336D+00 0.424D+00
 Gap=     0.084 Goal=   None    Shift=    0.000
 Gap=     0.042 Goal=   None    Shift=    0.000
 RMSDP=1.93D-04 MaxDP=1.14D-02 DE=-3.65D-02 OVMax= 4.48D-02

 Cycle   6  Pass 0  IDiag  1:
 RMSU=  7.32D-05    CP:  9.81D-01  1.35D+00  8.16D-01  5.52D-01  4.57D-01
 E= -3311.86609101150     Delta-E=       -0.004091313814 Rises=F Damp=F
 DIIS: error= 1.09D-03 at cycle   6 NSaved=   6.
 NSaved= 6 IEnMin= 6 EnMin= -3311.86609101150     IErMin= 6 ErrMin= 1.09D-03
 ErrMax= 1.09D-03 EMaxC= 1.00D-01 BMatC= 1.78D-03 BMatP= 1.47D-02
 IDIUse=3 WtCom= 9.89D-01 WtEn= 1.09D-02
 Coeff-Com:  0.121D-01-0.187D-01 0.657D-01 0.112D+00 0.279D+00 0.549D+00
 Coeff-En:   0.000D+00 0.000D+00 0.000D+00 0.000D+00 0.125D+00 0.875D+00
 Coeff:      0.120D-01-0.185D-01 0.650D-01 0.111D+00 0.278D+00 0.553D+00
 Gap=     0.085 Goal=   None    Shift=    0.000
 Gap=     0.043 Goal=   None    Shift=    0.000
 RMSDP=6.75D-05 MaxDP=3.04D-03 DE=-4.09D-03 OVMax= 1.16D-02

 Cycle   7  Pass 0  IDiag  1:
 RMSU=  2.47D-05    CP:  9.81D-01  1.34D+00  8.22D-01  5.51D-01  6.05D-01
                    CP:  6.62D-01
 E= -3311.86661590436     Delta-E=       -0.000524892860 Rises=F Damp=F
 DIIS: error= 5.18D-04 at cycle   7 NSaved=   7.
 NSaved= 7 IEnMin= 7 EnMin= -3311.86661590436     IErMin= 7 ErrMin= 5.18D-04
 ErrMax= 5.18D-04 EMaxC= 1.00D-01 BMatC= 2.35D-04 BMatP= 1.78D-03
 IDIUse=3 WtCom= 9.95D-01 WtEn= 5.18D-03
 Coeff-Com:  0.482D-02-0.904D-02 0.159D-01 0.345D-01 0.133D+00 0.350D+00
 Coeff-Com:  0.470D+00
 Coeff-En:   0.000D+00 0.000D+00 0.000D+00 0.000D+00 0.000D+00 0.300D-02
 Coeff-En:   0.997D+00
 Coeff:      0.480D-02-0.899D-02 0.158D-01 0.344D-01 0.132D+00 0.348D+00
 Coeff:      0.473D+00
 Gap=     0.085 Goal=   None    Shift=    0.000
 Gap=     0.043 Goal=   None    Shift=    0.000
 RMSDP=2.39D-05 MaxDP=2.09D-03 DE=-5.25D-04 OVMax= 4.96D-03

 Cycle   8  Pass 0  IDiag  1:
 RMSU=  1.59D-05    CP:  9.81D-01  1.34D+00  8.23D-01  5.49D-01  5.95D-01
                    CP:  7.37D-01  8.46D-01
 E= -3311.86670227437     Delta-E=       -0.000086370012 Rises=F Damp=F
 DIIS: error= 1.73D-04 at cycle   8 NSaved=   8.
 NSaved= 8 IEnMin= 8 EnMin= -3311.86670227437     IErMin= 8 ErrMin= 1.73D-04
 ErrMax= 1.73D-04 EMaxC= 1.00D-01 BMatC= 3.42D-05 BMatP= 2.35D-04
 IDIUse=3 WtCom= 9.98D-01 WtEn= 1.73D-03
 Coeff-Com: -0.177D-02 0.244D-02-0.120D-01-0.174D-01-0.246D-01-0.822D-02
 Coeff-Com:  0.236D+00 0.826D+00
 Coeff-En:   0.000D+00 0.000D+00 0.000D+00 0.000D+00 0.000D+00 0.000D+00
 Coeff-En:   0.000D+00 0.100D+01
 Coeff:     -0.177D-02 0.244D-02-0.120D-01-0.173D-01-0.245D-01-0.821D-02
 Coeff:      0.235D+00 0.826D+00
 Gap=     0.085 Goal=   None    Shift=    0.000
 Gap=     0.044 Goal=   None    Shift=    0.000
 RMSDP=1.85D-05 MaxDP=1.16D-03 DE=-8.64D-05 OVMax= 6.61D-03

 Cycle   9  Pass 0  IDiag  1:
 RMSU=  7.05D-06    CP:  9.81D-01  1.34D+00  8.24D-01  5.51D-01  6.17D-01
                    CP:  7.89D-01  1.15D+00  1.23D+00
 E= -3311.86673934137     Delta-E=       -0.000037067000 Rises=F Damp=F
 DIIS: error= 9.36D-05 at cycle   9 NSaved=   9.
 NSaved= 9 IEnMin= 9 EnMin= -3311.86673934137     IErMin= 9 ErrMin= 9.36D-05
 ErrMax= 9.36D-05 EMaxC= 1.00D-01 BMatC= 1.28D-05 BMatP= 3.42D-05
 IDIUse=1 WtCom= 1.00D+00 WtEn= 0.00D+00
 Coeff-Com: -0.167D-02 0.278D-02-0.909D-02-0.147D-01-0.399D-01-0.752D-01
 Coeff-Com:  0.182D-01 0.400D+00 0.719D+00
 Coeff:     -0.167D-02 0.278D-02-0.909D-02-0.147D-01-0.399D-01-0.752D-01
 Coeff:      0.182D-01 0.400D+00 0.719D+00
 Gap=     0.085 Goal=   None    Shift=    0.000
 Gap=     0.044 Goal=   None    Shift=    0.000
 RMSDP=1.26D-05 MaxDP=8.61D-04 DE=-3.71D-05 OVMax= 3.27D-03

 Cycle  10  Pass 0  IDiag  1:
 RMSU=  5.27D-06    CP:  9.81D-01  1.34D+00  8.24D-01  5.51D-01  6.27D-01
                    CP:  8.20D-01  1.30D+00  1.58D+00  1.09D+00
 E= -3311.86675339311     Delta-E=       -0.000014051745 Rises=F Damp=F
 DIIS: error= 1.06D-04 at cycle  10 NSaved=  10.
 NSaved=10 IEnMin=10 EnMin= -3311.86675339311     IErMin= 9 ErrMin= 9.36D-05
 ErrMax= 1.06D-04 EMaxC= 1.00D-01 BMatC= 1.11D-05 BMatP= 1.28D-05
 IDIUse=1 WtCom= 1.00D+00 WtEn= 0.00D+00
 Coeff-Com: -0.405D-04 0.517D-03 0.111D-02 0.984D-03-0.208D-01-0.711D-01
 Coeff-Com: -0.200D+00-0.362D+00 0.786D+00 0.865D+00
 Coeff:     -0.405D-04 0.517D-03 0.111D-02 0.984D-03-0.208D-01-0.711D-01
 Coeff:     -0.200D+00-0.362D+00 0.786D+00 0.865D+00
 Gap=     0.085 Goal=   None    Shift=    0.000
 Gap=     0.044 Goal=   None    Shift=    0.000
 RMSDP=1.70D-05 MaxDP=1.03D-03 DE=-1.41D-05 OVMax= 5.12D-03

 Cycle  11  Pass 0  IDiag  1:
 RMSU=  3.34D-06    CP:  9.81D-01  1.34D+00  8.25D-01  5.52D-01  6.38D-01
                    CP:  8.61D-01  1.53D+00  2.02D+00  1.87D+00  1.12D+00
 E= -3311.86676639007     Delta-E=       -0.000012996956 Rises=F Damp=F
 DIIS: error= 4.72D-05 at cycle  11 NSaved=  11.
 NSaved=11 IEnMin=11 EnMin= -3311.86676639007     IErMin=11 ErrMin= 4.72D-05
 ErrMax= 4.72D-05 EMaxC= 1.00D-01 BMatC= 2.82D-06 BMatP= 1.11D-05
 IDIUse=1 WtCom= 1.00D+00 WtEn= 0.00D+00
 Coeff-Com:  0.210D-03-0.659D-04 0.250D-02 0.398D-02-0.606D-02-0.313D-01
 Coeff-Com: -0.135D+00-0.333D+00 0.390D+00 0.582D+00 0.527D+00
 Coeff:      0.210D-03-0.659D-04 0.250D-02 0.398D-02-0.606D-02-0.313D-01
 Coeff:     -0.135D+00-0.333D+00 0.390D+00 0.582D+00 0.527D+00
 Gap=     0.085 Goal=   None    Shift=    0.000
 Gap=     0.044 Goal=   None    Shift=    0.000
 RMSDP=5.01D-06 MaxDP=3.31D-04 DE=-1.30D-05 OVMax= 1.47D-03

 Initial convergence to 1.0D-05 achieved.  Increase integral accuracy.
 Cycle  12  Pass 1  IDiag  1:
 E= -3311.86671810819     Delta-E=        0.000048281879 Rises=F Damp=F
 DIIS: error= 4.52D-05 at cycle   1 NSaved=   1.
 NSaved= 1 IEnMin= 1 EnMin= -3311.86671810819     IErMin= 1 ErrMin= 4.52D-05
 ErrMax= 4.52D-05 EMaxC= 1.00D-01 BMatC= 2.80D-06 BMatP= 2.80D-06
 IDIUse=1 WtCom= 1.00D+00 WtEn= 0.00D+00
 Coeff-Com:  0.100D+01
 Coeff:      0.100D+01
 Gap=     0.085 Goal=   None    Shift=    0.000
 Gap=     0.044 Goal=   None    Shift=    0.000
 RMSDP=5.01D-06 MaxDP=3.31D-04 DE= 4.83D-05 OVMax= 5.41D-04

 Cycle  13  Pass 1  IDiag  1:
 RMSU=  1.27D-05    CP:  1.00D+00
 E= -3311.86671838218     Delta-E=       -0.000000273991 Rises=F Damp=F
 DIIS: error= 3.31D-05 at cycle   2 NSaved=   2.
 NSaved= 2 IEnMin= 2 EnMin= -3311.86671838218     IErMin= 2 ErrMin= 3.31D-05
 ErrMax= 3.31D-05 EMaxC= 1.00D-01 BMatC= 1.76D-06 BMatP= 2.80D-06
 IDIUse=1 WtCom= 1.00D+00 WtEn= 0.00D+00
 Coeff-Com:  0.415D+00 0.585D+00
 Coeff:      0.415D+00 0.585D+00
 Gap=     0.085 Goal=   None    Shift=    0.000
 Gap=     0.044 Goal=   None    Shift=    0.000
 RMSDP=3.10D-06 MaxDP=1.49D-04 DE=-2.74D-07 OVMax= 3.52D-04

 Cycle  14  Pass 1  IDiag  1:
 RMSU=  2.19D-06    CP:  1.00D+00  9.87D-01
 E= -3311.86671847468     Delta-E=       -0.000000092493 Rises=F Damp=F
 DIIS: error= 3.73D-05 at cycle   3 NSaved=   3.
 NSaved= 3 IEnMin= 3 EnMin= -3311.86671847468     IErMin= 2 ErrMin= 3.31D-05
 ErrMax= 3.73D-05 EMaxC= 1.00D-01 BMatC= 1.55D-06 BMatP= 1.76D-06
 IDIUse=1 WtCom= 1.00D+00 WtEn= 0.00D+00
 Coeff-Com:  0.113D-01 0.481D+00 0.508D+00
 Coeff:      0.113D-01 0.481D+00 0.508D+00
 Gap=     0.085 Goal=   None    Shift=    0.000
 Gap=     0.044 Goal=   None    Shift=    0.000
 RMSDP=1.67D-06 MaxDP=7.13D-05 DE=-9.25D-08 OVMax= 2.65D-04

 Cycle  15  Pass 1  IDiag  1:
 RMSU=  5.54D-07    CP:  1.00D+00  1.00D+00  5.33D-01
 E= -3311.86671891369     Delta-E=       -0.000000439010 Rises=F Damp=F
 DIIS: error= 8.70D-06 at cycle   4 NSaved=   4.
 NSaved= 4 IEnMin= 4 EnMin= -3311.86671891369     IErMin= 4 ErrMin= 8.70D-06
 ErrMax= 8.70D-06 EMaxC= 1.00D-01 BMatC= 1.07D-07 BMatP= 1.55D-06
 IDIUse=1 WtCom= 1.00D+00 WtEn= 0.00D+00
 Coeff-Com: -0.127D-01 0.291D+00 0.335D+00 0.387D+00
 Coeff:     -0.127D-01 0.291D+00 0.335D+00 0.387D+00
 Gap=     0.085 Goal=   None    Shift=    0.000
 Gap=     0.044 Goal=   None    Shift=    0.000
 RMSDP=4.56D-07 MaxDP=2.72D-05 DE=-4.39D-07 OVMax= 6.57D-05

 Cycle  16  Pass 1  IDiag  1:
 RMSU=  2.92D-07    CP:  1.00D+00  1.01D+00  5.55D-01  7.22D-01
 E= -3311.86671894843     Delta-E=       -0.000000034748 Rises=F Damp=F
 DIIS: error= 2.90D-06 at cycle   5 NSaved=   5.
 NSaved= 5 IEnMin= 5 EnMin= -3311.86671894843     IErMin= 5 ErrMin= 2.90D-06
 ErrMax= 2.90D-06 EMaxC= 1.00D-01 BMatC= 9.63D-09 BMatP= 1.07D-07
 IDIUse=1 WtCom= 1.00D+00 WtEn= 0.00D+00
 Coeff-Com: -0.654D-02-0.410D-01-0.352D-01 0.124D+00 0.959D+00
 Coeff:     -0.654D-02-0.410D-01-0.352D-01 0.124D+00 0.959D+00
 Gap=     0.085 Goal=   None    Shift=    0.000
 Gap=     0.044 Goal=   None    Shift=    0.000
 RMSDP=3.47D-07 MaxDP=3.44D-05 DE=-3.47D-08 OVMax= 8.57D-05

 Cycle  17  Pass 1  IDiag  1:
 RMSU=  1.27D-07    CP:  1.00D+00  1.01D+00  5.64D-01  1.01D+00  1.42D+00
 E= -3311.86671896150     Delta-E=       -0.000000013069 Rises=F Damp=F
 DIIS: error= 2.24D-06 at cycle   6 NSaved=   6.
 NSaved= 6 IEnMin= 6 EnMin= -3311.86671896150     IErMin= 6 ErrMin= 2.24D-06
 ErrMax= 2.24D-06 EMaxC= 1.00D-01 BMatC= 5.66D-09 BMatP= 9.63D-09
 IDIUse=1 WtCom= 1.00D+00 WtEn= 0.00D+00
 Coeff-Com:  0.337D-02-0.211D+00-0.232D+00-0.141D+00 0.687D+00 0.893D+00
 Coeff:      0.337D-02-0.211D+00-0.232D+00-0.141D+00 0.687D+00 0.893D+00
 Gap=     0.085 Goal=   None    Shift=    0.000
 Gap=     0.044 Goal=   None    Shift=    0.000
 RMSDP=3.78D-07 MaxDP=4.16D-05 DE=-1.31D-08 OVMax= 9.86D-05

 Cycle  18  Pass 1  IDiag  1:
 RMSU=  9.22D-08    CP:  1.00D+00  1.01D+00  5.75D-01  1.30D+00  2.11D+00
                    CP:  1.23D+00
 E= -3311.86671897000     Delta-E=       -0.000000008493 Rises=F Damp=F
 DIIS: error= 1.09D-06 at cycle   7 NSaved=   7.
 NSaved= 7 IEnMin= 7 EnMin= -3311.86671897000     IErMin= 7 ErrMin= 1.09D-06
 ErrMax= 1.09D-06 EMaxC= 1.00D-01 BMatC= 1.76D-09 BMatP= 5.66D-09
 IDIUse=1 WtCom= 1.00D+00 WtEn= 0.00D+00
 Coeff-Com:  0.373D-02-0.125D+00-0.139D+00-0.123D+00 0.185D+00 0.561D+00
 Coeff-Com:  0.638D+00
 Coeff:      0.373D-02-0.125D+00-0.139D+00-0.123D+00 0.185D+00 0.561D+00
 Coeff:      0.638D+00
 Gap=     0.085 Goal=   None    Shift=    0.000
 Gap=     0.044 Goal=   None    Shift=    0.000
 RMSDP=1.60D-07 MaxDP=1.53D-05 DE=-8.49D-09 OVMax= 4.19D-05

 Cycle  19  Pass 1  IDiag  1:
 RMSU=  4.49D-08    CP:  1.00D+00  1.01D+00  5.81D-01  1.41D+00  2.35D+00
                    CP:  1.53D+00  1.01D+00
 E= -3311.86671897159     Delta-E=       -0.000000001597 Rises=F Damp=F
 DIIS: error= 5.66D-07 at cycle   8 NSaved=   8.
 NSaved= 8 IEnMin= 8 EnMin= -3311.86671897159     IErMin= 8 ErrMin= 5.66D-07
 ErrMax= 5.66D-07 EMaxC= 1.00D-01 BMatC= 3.03D-10 BMatP= 1.76D-09
 IDIUse=1 WtCom= 1.00D+00 WtEn= 0.00D+00
 Coeff-Com:  0.970D-03-0.145D-01-0.154D-01-0.278D-01-0.597D-01 0.617D-01
 Coeff-Com:  0.311D+00 0.744D+00
 Coeff:      0.970D-03-0.145D-01-0.154D-01-0.278D-01-0.597D-01 0.617D-01
 Coeff:      0.311D+00 0.744D+00
 Gap=     0.085 Goal=   None    Shift=    0.000
 Gap=     0.044 Goal=   None    Shift=    0.000
 RMSDP=6.74D-08 MaxDP=4.52D-06 DE=-1.60D-09 OVMax= 1.81D-05

 Cycle  20  Pass 1  IDiag  1:
 RMSU=  2.07D-08    CP:  1.00D+00  1.01D+00  5.83D-01  1.45D+00  2.44D+00
                    CP:  1.64D+00  1.27D+00  1.01D+00
 E= -3311.86671897185     Delta-E=       -0.000000000262 Rises=F Damp=F
 DIIS: error= 3.09D-07 at cycle   9 NSaved=   9.
 NSaved= 9 IEnMin= 9 EnMin= -3311.86671897185     IErMin= 9 ErrMin= 3.09D-07
 ErrMax= 3.09D-07 EMaxC= 1.00D-01 BMatC= 1.20D-10 BMatP= 3.03D-10
 IDIUse=1 WtCom= 1.00D+00 WtEn= 0.00D+00
 Coeff-Com: -0.645D-03 0.348D-01 0.392D-01 0.259D-01-0.103D+00-0.162D+00
 Coeff-Com: -0.222D-01 0.481D+00 0.707D+00
 Coeff:     -0.645D-03 0.348D-01 0.392D-01 0.259D-01-0.103D+00-0.162D+00
 Coeff:     -0.222D-01 0.481D+00 0.707D+00
 Gap=     0.085 Goal=   None    Shift=    0.000
 Gap=     0.044 Goal=   None    Shift=    0.000
 RMSDP=3.82D-08 MaxDP=2.38D-06 DE=-2.62D-10 OVMax= 1.29D-05

 Cycle  21  Pass 1  IDiag  1:
 RMSU=  1.23D-08    CP:  1.00D+00  1.01D+00  5.84D-01  1.46D+00  2.48D+00
                    CP:  1.71D+00  1.37D+00  1.27D+00  9.99D-01
 E= -3311.86671897196     Delta-E=       -0.000000000107 Rises=F Damp=F
 DIIS: error= 1.46D-07 at cycle  10 NSaved=  10.
 NSaved=10 IEnMin=10 EnMin= -3311.86671897196     IErMin=10 ErrMin= 1.46D-07
 ErrMax= 1.46D-07 EMaxC= 1.00D-01 BMatC= 2.15D-11 BMatP= 1.20D-10
 IDIUse=1 WtCom= 1.00D+00 WtEn= 0.00D+00
 Coeff-Com: -0.512D-03 0.211D-01 0.234D-01 0.191D-01-0.447D-01-0.965D-01
 Coeff-Com: -0.698D-01 0.121D+00 0.380D+00 0.648D+00
 Coeff:     -0.512D-03 0.211D-01 0.234D-01 0.191D-01-0.447D-01-0.965D-01
 Coeff:     -0.698D-01 0.121D+00 0.380D+00 0.648D+00
 Gap=     0.085 Goal=   None    Shift=    0.000
 Gap=     0.044 Goal=   None    Shift=    0.000
 RMSDP=1.43D-08 MaxDP=1.01D-06 DE=-1.07D-10 OVMax= 3.54D-06

 Cycle  22  Pass 1  IDiag  1:
 RMSU=  6.25D-09    CP:  1.00D+00  1.01D+00  5.84D-01  1.47D+00  2.49D+00
                    CP:  1.73D+00  1.42D+00  1.33D+00  1.19D+00  8.54D-01
 E= -3311.86671897196     Delta-E=        0.000000000000 Rises=F Damp=F
 DIIS: error= 1.28D-07 at cycle  11 NSaved=  11.
 NSaved=11 IEnMin=10 EnMin= -3311.86671897196     IErMin=11 ErrMin= 1.28D-07
 ErrMax= 1.28D-07 EMaxC= 1.00D-01 BMatC= 1.19D-11 BMatP= 2.15D-11
 IDIUse=1 WtCom= 1.00D+00 WtEn= 0.00D+00
 Coeff-Com: -0.231D-03 0.765D-02 0.827D-02 0.822D-02-0.107D-01-0.350D-01
 Coeff-Com: -0.446D-01-0.827D-02 0.134D+00 0.474D+00 0.467D+00
 Coeff:     -0.231D-03 0.765D-02 0.827D-02 0.822D-02-0.107D-01-0.350D-01
 Coeff:     -0.446D-01-0.827D-02 0.134D+00 0.474D+00 0.467D+00
 Gap=     0.085 Goal=   None    Shift=    0.000
 Gap=     0.044 Goal=   None    Shift=    0.000
 RMSDP=6.63D-09 MaxDP=4.68D-07 DE= 0.00D+00 OVMax= 2.01D-06

 SCF Done:  E(UB3LYP) =  -3311.86671897     A.U. after   22 cycles
             Convg  =    0.6628D-08             -V/T =  2.0051
 <Sx>= 0.0000 <Sy>= 0.0000 <Sz>= 0.5000 <S**2>= 0.7742 S= 0.5120
 <L.S>= 0.000000000000E+00
 KE= 3.294982971732D+03 PE=-1.421401121507D+04 EE= 4.393242060790D+03
 Annihilation of the first spin contaminant:
 S**2 before annihilation     0.7742,   after     0.7504
 DiagDN has N=   502 LTot=  1536 but NE2=     3 cannot use DSYEVD.
 Leave Link  502 at Fri Apr  8 11:29:30 2011, MaxMem= 1441792000 cpu:     949.3
 (Enter /apps/gaussian/g09/g09/l801.exe)
 ExpMin= 1.17D-01 ExpMax= 2.19D+04 ExpMxC= 3.30D+03 IAcc=1 IRadAn=         1 AccDes= 0.00D+00
 HarFok:  IExCor=  205 AccDes= 0.00D+00 IRadAn=         1 IDoV=-2
 ScaDFX=  1.000000  1.000000  1.000000  1.000000
 Largest valence mixing into a core orbital is  8.71D-05
 Largest core mixing into a valence orbital is  3.10D-05
 Largest valence mixing into a core orbital is  8.70D-05
 Largest core mixing into a valence orbital is  3.12D-05
 Range of M.O.s used for correlation:    55   502
 NBasis=   502 NAE=   127 NBE=   126 NFC=    54 NFV=     0
 NROrb=    448 NOA=    73 NOB=    72 NVA=   375 NVB=   376

 **** Warning!!: The smallest alpha delta epsilon is  0.84768887D-01


 **** Warning!!: The smallest beta delta epsilon is  0.44051812D-01

 Leave Link  801 at Fri Apr  8 11:29:31 2011, MaxMem= 1441792000 cpu:       1.8
 (Enter /apps/gaussian/g09/g09/l914.exe)
 UHF ground state
 Ignoring spin specification with unrestricted ground state.
 MDV=  1441792000 DFT=T DoStab=F Mixed=T DoRPA=T DoScal=F NonHer=T
 Would need an additional 22695800000 words for in-memory AO integral storage.
 Making orbital integer symmetry assigments:
 Orbital symmetries:
 Alpha Orbitals:
       Occupied  (BU) (AG) (BU) (AG) (BU) (AG) (AG) (BU) (AG) (BU)
                 (AG) (BU) (AG) (BU) (BU) (AG) (AG) (BU) (AG) (BU)
                 (BU) (AG) (BU) (AG) (AG) (BU) (BU) (AG) (AG) (BU)
                 (AG) (BU) (BU) (AG) (BU) (AG) (AG) (BU) (BU) (AG)
                 (BU) (AG) (AU) (BG) (BU) (AG) (BG) (AU) (BU) (AG)
                 (BU) (AG) (AU) (BG) (AG) (BU) (AG) (BU) (AG) (BU)
                 (AG) (BU) (AG) (BU) (BU) (AG) (AG) (BU) (AG) (BU)
                 (AG) (BU) (AG) (BU) (AG) (BU) (AG) (BU) (AG) (BU)
                 (AG) (BU) (AG) (BU) (AG) (BU) (AG) (BU) (BU) (AG)
                 (BU) (AG) (AU) (AG) (BU) (BG) (AG) (BU) (AU) (AG)
                 (BU) (BU) (AG) (BG) (AG) (BU) (AU) (AG) (BU) (BG)
                 (AG) (BU) (AG) (BU) (AG) (AU) (BG) (BG) (AU) (BG)
                 (AU) (AU) (BG) (AU) (BG) (AU) (BG)
       Virtual   (AU) (BG) (AU) (BG) (AG) (BU) (AU) (BU) (AG) (BU)
                 (AG) (BG) (BU) (AU) (BG) (AG) (AG) (AU) (BU) (BG)
                 (BG) (AU) (BU) (AG) (BU) (AG) (BU) (AG) (BU) (AG)
                 (AG) (BU) (BU) (AG) (BU) (AG) (BU) (AG) (BU) (AG)
                 (BU) (BU) (AG) (AG) (BU) (AG) (BU) (BU) (AG) (AG)
                 (BU) (AG) (BU) (AG) (BU) (AG) (BU) (BU) (AU) (AG)
                 (BG) (BU) (AU) (BG) (AG) (AG) (AU) (BG) (BU) (AG)
                 (BU) (AG) (AG) (BU) (BU) (BU) (AG) (AG) (BU) (BU)
                 (AG) (AG) (BU) (AG) (BU) (BU) (AG) (AU) (BG) (AU)
                 (BG) (AU) (BG) (BU) (AU) (AG) (BG) (AG) (BU) (BU)
                 (AG) (BG) (AU) (AG) (BU) (AG) (BU) (AU) (BG) (BU)
                 (AG) (BG) (AU) (BG) (AU) (BG) (AU) (BG) (AU) (AU)
                 (BG) (AU) (BG) (AG) (BU) (AG) (BU) (BU) (AG) (AG)
                 (BU) (AU) (AG) (BG) (BU) (AU) (BG) (AU) (AG) (BG)
                 (BU) (AU) (BU) (AG) (AG) (BU) (AG) (BU) (BU) (AG)
                 (BU) (AG) (BU) (BU) (AG) (AG) (AG) (BU) (BG) (AG)
                 (BU) (BU) (AU) (AG) (AG) (BU) (BG) (BU) (AG) (AU)
                 (BU) (BG) (AG) (AG) (BU) (AG) (BU) (AG) (BU) (AG)
                 (BU) (AG) (BU) (BU) (AG) (AG) (BU) (AG) (AG) (BU)
                 (BU) (AG) (BU) (AG) (BU) (AG) (BU) (AG) (BU) (AG)
                 (BU) (AG) (BU) (AU) (BU) (AG) (BG) (BU) (AU) (BG)
                 (AG) (AU) (AG) (BU) (BU) (AG) (BG) (AU) (AG) (BU)
                 (BG) (AU) (BG) (AU) (AG) (BG) (AU) (BU) (AG) (BU)
                 (BU) (AG) (BG) (AU) (BG) (BG) (AU) (AG) (BU) (AG)
                 (BU) (BU) (AG) (AU) (BG) (AU) (BG) (AU) (AG) (BU)
                 (BU) (AG) (BG) (AU) (AG) (BU) (AG) (AG) (BU) (BU)
                 (AG) (BU) (AG) (BG) (AG) (BG) (BU) (BU) (AU) (AG)
                 (AU) (BG) (BU) (AG) (BU) (AG) (BU) (AG) (BU) (AG)
                 (BU) (AG) (BU) (AU) (BG) (AG) (AU) (BU) (BG) (AU)
                 (AG) (AG) (BU) (BU) (BG) (AU) (AG) (BU) (AG) (BU)
                 (BU) (AG) (BU) (AG) (BG) (AG) (AU) (BG) (AU) (BG)
                 (BU) (AU) (BG) (AU) (BG) (AU) (AG) (BG) (BU) (BU)
                 (AG) (AG) (BU) (BU) (AG) (AG) (BU) (AG) (BU) (AG)
                 (BU) (BU) (AG) (AG) (BU) (BU) (AG) (BU) (AG) (BU)
                 (AG) (AG) (BU) (AG) (BU) (BU) (AG) (AG) (BU) (BU)
                 (AG) (AG) (BU) (AG) (BU) (BU) (AG) (AG) (BU) (AG)
                 (BU) (AG) (BU) (AG) (BU) (AG) (BU) (AG) (BU) (AG)
                 (BU) (BU) (AG) (AG) (BU)
 Beta  Orbitals:
       Occupied  (BU) (AG) (BU) (AG) (BU) (AG) (AG) (BU) (AG) (BU)
                 (AG) (BU) (AG) (BU) (BU) (AG) (AG) (BU) (AG) (BU)
                 (BU) (AG) (BU) (AG) (AG) (BU) (AG) (BU) (AG) (BU)
                 (AG) (BU) (BU) (AG) (BU) (AG) (AG) (BU) (BU) (AG)
                 (BU) (AG) (AU) (BG) (BU) (AG) (BG) (AU) (BU) (AG)
                 (BU) (AG) (AU) (BG) (AG) (BU) (AG) (BU) (AG) (BU)
                 (AG) (BU) (AG) (BU) (BU) (AG) (AG) (BU) (AG) (BU)
                 (AG) (BU) (AG) (BU) (AG) (BU) (AG) (BU) (AG) (BU)
                 (AG) (BU) (AG) (BU) (AG) (BU) (AG) (BU) (BU) (AG)
                 (BU) (AG) (AU) (AG) (BU) (BG) (AG) (BU) (AG) (AU)
                 (BU) (BU) (AG) (AG) (BG) (BU) (AG) (AU) (BU) (BG)
                 (AG) (BU) (AG) (BU) (AG) (AU) (BG) (BG) (AU) (BG)
                 (AU) (AU) (BG) (AU) (BG) (AU)
       Virtual   (BG) (AU) (BG) (AU) (BG) (BU) (AG) (BU) (AG) (AU)
                 (BU) (AG) (BG) (BU) (AU) (AG) (BG) (AG) (BU) (AU)
                 (BG) (BU) (AG) (BG) (AU) (BU) (BU) (AG) (AG) (BU)
                 (AG) (AG) (BU) (BU) (AG) (BU) (AG) (BU) (AG) (BU)
                 (AG) (BU) (BU) (AG) (AG) (BU) (AG) (BU) (BU) (AG)
                 (AG) (BU) (AG) (BU) (BU) (AG) (AG) (BU) (BU) (AU)
                 (AG) (BG) (AU) (BG) (BU) (AG) (AG) (AU) (BG) (BU)
                 (AG) (BU) (AG) (AG) (BU) (BU) (BU) (AG) (AG) (BU)
                 (BU) (AG) (AG) (BU) (AG) (BU) (BU) (AG) (AU) (BG)
                 (AU) (BG) (AU) (BG) (BU) (AU) (AG) (BG) (AG) (BU)
                 (BU) (AG) (BG) (AG) (BU) (AU) (AG) (BU) (AU) (BU)
                 (AG) (BG) (BG) (AU) (BG) (AU) (BG) (AU) (BG) (AU)
                 (AU) (BG) (AG) (AU) (BG) (BU) (AG) (BU) (BU) (AG)
                 (AG) (BU) (AU) (AG) (BG) (BU) (AU) (BG) (AU) (AG)
                 (BG) (BU) (AU) (BU) (AG) (AG) (BU) (AG) (BU) (BU)
                 (AG) (BU) (AG) (BU) (BU) (AG) (AG) (BU) (AG) (BG)
                 (AG) (BU) (BU) (AU) (AG) (AG) (BU) (BG) (BU) (AG)
                 (AU) (BU) (AG) (BG) (AG) (BU) (AG) (AG) (BU) (BU)
                 (AG) (BU) (AG) (BU) (BU) (AG) (AG) (BU) (AG) (AG)
                 (BU) (BU) (AG) (BU) (AG) (BU) (AG) (BU) (AG) (BU)
                 (AG) (BU) (AG) (BU) (BU) (AU) (AG) (BG) (BU) (AU)
                 (AG) (BG) (AU) (AG) (BU) (BU) (AG) (BG) (AU) (AG)
                 (BU) (BG) (AU) (BG) (AU) (AG) (BG) (AU) (BU) (AG)
                 (BU) (BU) (AG) (BG) (AU) (BG) (BG) (AU) (AG) (BU)
                 (AG) (BU) (BU) (AG) (AU) (BG) (AU) (BG) (AU) (AG)
                 (BU) (BU) (AG) (BG) (AU) (AG) (BU) (AG) (AG) (BU)
                 (BU) (AG) (BU) (AG) (BG) (AG) (BU) (BG) (BU) (AU)
                 (AG) (AU) (BG) (BU) (AG) (BU) (AG) (BU) (AG) (BU)
                 (AG) (BU) (AG) (BU) (AG) (AU) (BG) (AU) (BU) (BG)
                 (AU) (AG) (AG) (BU) (BG) (AU) (BU) (AG) (BU) (AG)
                 (BU) (BU) (AG) (BU) (AG) (BG) (AG) (AU) (BG) (AU)
                 (BG) (BU) (AU) (BG) (AU) (BG) (AG) (AU) (BG) (BU)
                 (BU) (AG) (AG) (BU) (BU) (AG) (AG) (BU) (AG) (BU)
                 (AG) (BU) (AG) (BU) (AG) (BU) (BU) (AG) (BU) (AG)
                 (BU) (AG) (AG) (BU) (AG) (BU) (BU) (AG) (AG) (BU)
                 (BU) (AG) (AG) (BU) (AG) (BU) (BU) (AG) (AG) (BU)
                 (AG) (BU) (AG) (BU) (AG) (BU) (AG) (BU) (AG) (BU)
                 (AG) (BU) (BU) (AG) (AG) (BU)
    12 initial guesses have been made.
 Convergence on wavefunction:    0.001000000000000
 Davidson Disk Diagonalization:  ConvIn= 1.00D-03 SkipCon=T Conv= 1.00D-03.
 Max sub-space:   200 roots to seek:    12 dimension of matrix:  54447
 Iteration     1 Dimension    12 NMult    12
 Cannot handle 2e integral symmetry, ISym2E=1.
 CISAX:  IP=  1 NPass=   1 NMax=    12.
 CISAX will form    12 AO SS matrices at one time.
 NMat=    12 NSing=    12.
 Symmetry not used in FoFDir.
 MinBra= 0 MaxBra= 2 Meth= 1.
 IRaf=       0 NMat=  12 IRICut=      30 DoRegI=T DoRafI=T ISym2E= 0 JSym2E=0.
 Raff turned off since only 42.18% of shell-pairs survive.
 Cannot handle 2e integral symmetry, ISym2E=1.
 CISAX:  IP=  1 NPass=   1 NMax=    12.
 CISAX will form    12 AO SS matrices at one time.
 NMat=    12 NSing=    12.
 No map to state      3
 Excitation Energies [eV] at current iteration:
 Root      1 :     1.115579220656570
 Root      2 :     1.744740575929627
 Root      3 :     2.103914067773574
 Iteration     2 Dimension    18 NMult    18
 Cannot handle 2e integral symmetry, ISym2E=1.
 CISAX:  IP=  1 NPass=   1 NMax=     6.
 CISAX will form     6 AO SS matrices at one time.
 NMat=     6 NSing=     6.
 Cannot handle 2e integral symmetry, ISym2E=1.
 CISAX:  IP=  1 NPass=   1 NMax=     6.
 CISAX will form     6 AO SS matrices at one time.
 NMat=     6 NSing=     6.
 Root      1 not converged, maximum delta is    0.066259722344770
 Root      2 not converged, maximum delta is    0.051001041454801
 Root      3 not converged, maximum delta is    0.140656331915942
 Excitation Energies [eV] at current iteration:
 Root      1 :     0.972054579648647   Change is   -0.143524641007923
 Root      2 :     1.617936514532181   Change is   -0.126804061397446
 Root      3 :     1.968177326393552   Change is   -0.135736741380022
 Iteration     3 Dimension    24 NMult    24
 Cannot handle 2e integral symmetry, ISym2E=1.
 CISAX:  IP=  1 NPass=   1 NMax=     6.
 CISAX will form     6 AO SS matrices at one time.
 NMat=     6 NSing=     6.
 Cannot handle 2e integral symmetry, ISym2E=1.
 CISAX:  IP=  1 NPass=   1 NMax=     6.
 CISAX will form     6 AO SS matrices at one time.
 NMat=     6 NSing=     6.
 Root      1 not converged, maximum delta is    0.027268071749105
 Root      2 not converged, maximum delta is    0.041985025655546
 Root      3 not converged, maximum delta is    0.045725008008728
 Excitation Energies [eV] at current iteration:
 Root      1 :     0.952680231736089   Change is   -0.019374347912558
 Root      2 :     1.598123043211712   Change is   -0.019813471320469
 Root      3 :     1.919424054881539   Change is   -0.048753271512013
 Iteration     4 Dimension    30 NMult    30
 Cannot handle 2e integral symmetry, ISym2E=1.
 CISAX:  IP=  1 NPass=   1 NMax=     6.
 CISAX will form     6 AO SS matrices at one time.
 NMat=     6 NSing=     6.
 Cannot handle 2e integral symmetry, ISym2E=1.
 CISAX:  IP=  1 NPass=   1 NMax=     6.
 CISAX will form     6 AO SS matrices at one time.
 NMat=     6 NSing=     6.
 Root      1 not converged, maximum delta is    0.013858598660926
 Root      2 not converged, maximum delta is    0.011327987161179
 Root      3 not converged, maximum delta is    0.015577554990348
 Excitation Energies [eV] at current iteration:
 Root      1 :     0.946892400998326   Change is   -0.005787830737763
 Root      2 :     1.592973978424937   Change is   -0.005149064786776
 Root      3 :     1.909317086430413   Change is   -0.010106968451126
 Iteration     5 Dimension    36 NMult    36
 Cannot handle 2e integral symmetry, ISym2E=1.
 CISAX:  IP=  1 NPass=   1 NMax=     6.
 CISAX will form     6 AO SS matrices at one time.
 NMat=     6 NSing=     6.
 Cannot handle 2e integral symmetry, ISym2E=1.
 CISAX:  IP=  1 NPass=   1 NMax=     6.
 CISAX will form     6 AO SS matrices at one time.
 NMat=     6 NSing=     6.
 Root      1 not converged, maximum delta is    0.012618472946749
 Root      2 not converged, maximum delta is    0.009397886959081
 Root      3 not converged, maximum delta is    0.011729261320879
 Excitation Energies [eV] at current iteration:
 Root      1 :     0.944532159116297   Change is   -0.002360241882028
 Root      2 :     1.591127528853142   Change is   -0.001846449571795
 Root      3 :     1.905358436173522   Change is   -0.003958650256891
 Iteration     6 Dimension    42 NMult    42
 Cannot handle 2e integral symmetry, ISym2E=1.
 CISAX:  IP=  1 NPass=   1 NMax=     6.
 CISAX will form     6 AO SS matrices at one time.
 NMat=     6 NSing=     6.
 Cannot handle 2e integral symmetry, ISym2E=1.
 CISAX:  IP=  1 NPass=   1 NMax=     6.
 CISAX will form     6 AO SS matrices at one time.
 NMat=     6 NSing=     6.
 Root      1 not converged, maximum delta is    0.009114856832375
 Root      2 not converged, maximum delta is    0.003646229910573
 Root      3 not converged, maximum delta is    0.002920581995383
 Excitation Energies [eV] at current iteration:
 Root      1 :     0.943624797011286   Change is   -0.000907362105011
 Root      2 :     1.590609203164427   Change is   -0.000518325688714
 Root      3 :     1.904625532136452   Change is   -0.000732904037070
 Iteration     7 Dimension    48 NMult    48
 Cannot handle 2e integral symmetry, ISym2E=1.
 CISAX:  IP=  1 NPass=   1 NMax=     6.
 CISAX will form     6 AO SS matrices at one time.
 NMat=     6 NSing=     6.
 Cannot handle 2e integral symmetry, ISym2E=1.
 CISAX:  IP=  1 NPass=   1 NMax=     6.
 CISAX will form     6 AO SS matrices at one time.
 NMat=     6 NSing=     6.
 Root      1 not converged, maximum delta is    0.001987230809902
 Root      2 not converged, maximum delta is    0.001134827697726
 Root      3 not converged, maximum delta is    0.001302714677140
 Excitation Energies [eV] at current iteration:
 Root      1 :     0.943380564392942   Change is   -0.000244232618343
 Root      2 :     1.590477641620215   Change is   -0.000131561544213
 Root      3 :     1.904530221431752   Change is   -0.000095310704700
 Iteration     8 Dimension    54 NMult    54
 Cannot handle 2e integral symmetry, ISym2E=1.
 CISAX:  IP=  1 NPass=   1 NMax=     6.
 CISAX will form     6 AO SS matrices at one time.
 NMat=     6 NSing=     6.
 Cannot handle 2e integral symmetry, ISym2E=1.
 CISAX:  IP=  1 NPass=   1 NMax=     6.
 CISAX will form     6 AO SS matrices at one time.
 NMat=     6 NSing=     6.
 Root      1 has converged.
 Root      2 has converged.
 Root      3 has converged.
 Excitation Energies [eV] at current iteration:
 Root      1 :     0.943338859736718   Change is   -0.000041704656224
 Root      2 :     1.590457082758261   Change is   -0.000020558861954
 Root      3 :     1.904508393435002   Change is   -0.000021827996750
 Convergence achieved on expansion vectors.
 ***********************************************************************
 Excited states from <AA,BB:AA,BB> singles matrix:
 ***********************************************************************
 
 ExtSpn:  IState=     1 X2= 1.028 Y2= 0.028 X2-Y2-1=-5.55D-16
          S2Grnd=  0.774 Ra=  0.004 Rb= -0.005 T= -0.008 S2Ext= -0.009 S2=  0.765
 ExtSpn:  IState=     2 X2= 1.011 Y2= 0.011 X2-Y2-1= 0.00D+00
          S2Grnd=  0.774 Ra=  0.132 Rb=  0.023 T=  0.104 S2Ext=  0.258 S2=  1.033
 ExtSpn:  IState=     3 X2= 1.018 Y2= 0.018 X2-Y2-1=-5.55D-16
          S2Grnd=  0.774 Ra=  0.156 Rb=  0.579 T=  0.597 S2Ext=  1.332 S2=  2.106
 1PDM for each excited state written to RWF  633
 Ground to excited state transition electric dipole moments (Au):
       state          X           Y           Z        Dip. S.      Osc.
         1         0.9950      4.2077      0.0000     18.6947      0.4321
         2         0.0000      0.0000      0.0000      0.0000      0.0000
         3         0.0000      0.0000      0.0000      0.0000      0.0000
 Ground to excited state transition velocity dipole moments (Au):
       state          X           Y           Z        Dip. S.      Osc.
         1        -0.0316     -0.1348      0.0000      0.0192      0.3687
         2         0.0000      0.0000      0.0000      0.0000      0.0000
         3         0.0000      0.0000      0.0000      0.0000      0.0000
 Ground to excited state transition magnetic dipole moments (Au):
       state          X           Y           Z
         1         0.0000      0.0000      0.0000
         2         0.0000      0.0000     -0.0643
         3         0.0000      0.0000      0.0123
 <0|del|b> * <b|rxdel|0> + <0|del|b> * <b|delr+rdel|0>
 Rotatory Strengths (R) in cgs (10**-40 erg-esu-cm/Gauss)
       state          XX          YY          ZZ    R(velocity)
         1         0.0000      0.0000      0.0000      0.0000
 Total R(velocity) tensor for State=          1
                 1             2             3 
      1   0.000000D+00  0.000000D+00  0.000000D+00
      2   0.000000D+00  0.000000D+00  0.000000D+00
      3   0.000000D+00  0.000000D+00  0.000000D+00
 R(velocity) tensor in inp. orien. for State=          1
                 1             2             3 
      1   0.000000D+00  0.000000D+00  0.000000D+00
      2   0.000000D+00  0.000000D+00  0.000000D+00
      3   0.000000D+00  0.000000D+00  0.000000D+00
         2         0.0000      0.0000      0.0000      0.0000
 Total R(velocity) tensor for State=          2
                 1             2             3 
      1   0.000000D+00  0.000000D+00  0.000000D+00
      2   0.000000D+00  0.000000D+00  0.000000D+00
      3   0.000000D+00  0.000000D+00  0.000000D+00
 R(velocity) tensor in inp. orien. for State=          2
                 1             2             3 
      1   0.000000D+00  0.000000D+00  0.000000D+00
      2   0.000000D+00  0.000000D+00  0.000000D+00
      3   0.000000D+00  0.000000D+00  0.000000D+00
         3         0.0000      0.0000      0.0000      0.0000
 Total R(velocity) tensor for State=          3
                 1             2             3 
      1   0.000000D+00  0.000000D+00  0.000000D+00
      2   0.000000D+00  0.000000D+00  0.000000D+00
      3   0.000000D+00  0.000000D+00  0.000000D+00
 R(velocity) tensor in inp. orien. for State=          3
                 1             2             3 
      1   0.000000D+00  0.000000D+00  0.000000D+00
      2   0.000000D+00  0.000000D+00  0.000000D+00
      3   0.000000D+00  0.000000D+00  0.000000D+00
 1/2[<0|r|b>*<b|rxdel|0> + (<0|rxdel|b>*<b|r|0>)*]
 Rotatory Strengths (R) in cgs (10**-40 erg-esu-cm/Gauss)
       state          XX          YY          ZZ     R(length)     R(au)
         1         0.0000      0.0000      0.0000      0.0000      0.0000
         2         0.0000      0.0000      0.0000      0.0000      0.0000
         3         0.0000      0.0000      0.0000      0.0000      0.0000
  1/2[<0|del|b>*<b|r|0> + (<0|r|b>*<b|del|0>)*] (Au)
       state          X           Y           Z        Dip. S.   Osc.(frdel)
         1        -0.0315     -0.5672      0.0000      0.5987      0.3991
         2         0.0000      0.0000      0.0000      0.0000      0.0000
         3         0.0000      0.0000      0.0000      0.0000      0.0000
 Ground to excited state transition densities written to RWF  633

 Excitation energies and oscillator strengths:
 
 Excited State   1:  2.015-BU     0.9433 eV 1314.31 nm  f=0.4321  <S**2>=0.765
    127A ->128A       -0.38961
    126B ->127B        0.92386
    127A <-128A       -0.10896
 This state for optimization and/or second-order correction.
 Total Energy, E(TD-HF/TD-KS) =  -3311.83205191    
 Copying the excited state density for this state as the 1-particle RhoCI density.
 
 Excited State   2:  2.265-AG     1.5905 eV  779.55 nm  f=0.0000  <S**2>=1.033
    126A ->128A       -0.35590
    127A ->129A       -0.29867
    125B ->127B        0.86455
    126B ->128B        0.13388
 
 Excited State   3:  3.070-AG     1.9045 eV  651.00 nm  f=0.0000  <S**2>=2.106
    126A ->128A       -0.36033
    127A ->129A       -0.28274
    123B ->127B       -0.10039
    125B ->127B       -0.39291
    125B ->129B       -0.11347
    126B ->128B        0.75078
[...]
     7  H    0.000000   0.000000   0.000000   0.000000   0.000000   0.000000
     8  H    0.000000   0.000000   0.000000   0.000000   0.000000   0.000000
     9  C    0.000000   0.000000   0.000000   0.000000   0.000000   0.000000
    10  C    0.000000   0.000000   0.000000   0.000000   0.000000   0.000000
    11  S    0.000007  -0.000022   0.000005   0.000000   0.000000   0.000000
    12  C    0.000012   0.000002   0.000013   0.000000   0.000000   0.000000
    13  H    0.000000   0.000000   0.000000   0.000000   0.000000   0.000000
    14  C    0.000240   0.000064   0.000135   0.000000  -0.000003   0.000000
    15  H    0.000000   0.000000  -0.000001   0.000000   0.000000   0.000000
    16  C   -0.006806  -0.000182  -0.004918  -0.000007   0.000208   0.000014
    17  C   -0.023375   0.000347  -0.005409   0.000136   0.000276   0.000012
    18  S   -0.000712  -0.000014   0.008142  -0.000014   0.000861  -0.000140
    19  C    0.071132   0.000066   0.026405   0.000135  -0.003575  -0.000273
    20  H    0.000066  -0.002048  -0.000012   0.000064   0.000000   0.000000
    21  C    0.026405  -0.000012   0.067006  -0.000059  -0.032928  -0.003575
    22  H    0.000135   0.000064  -0.000059  -0.003476   0.000037   0.000001
    23  C   -0.003575   0.000000  -0.032928   0.000037   0.067006   0.026405
    24  C   -0.000273   0.000000  -0.003575   0.000001   0.026405   0.071132
    25  S   -0.000140   0.000000   0.000861  -0.000010   0.008142  -0.000712
    26  C    0.000012   0.000000   0.000276   0.000000  -0.005409  -0.023375
    27  H    0.000001   0.000000   0.000037   0.000000  -0.000059   0.000135
    28  C    0.000014   0.000000   0.000208  -0.000001  -0.004918  -0.006806
    29  H    0.000000   0.000000   0.000000   0.000000  -0.000012   0.000066
    30  C    0.000000   0.000000  -0.000003   0.000000   0.000135   0.000240
    31  C    0.000000   0.000000   0.000000   0.000000   0.000013   0.000012
    32  S    0.000000   0.000000   0.000000   0.000000   0.000005   0.000007
    33  C    0.000000   0.000000   0.000000   0.000000   0.000000   0.000000
    34  H    0.000000   0.000000   0.000000   0.000000  -0.000001   0.000000
    35  C    0.000000   0.000000   0.000000   0.000000   0.000000   0.000000
    36  H    0.000000   0.000000   0.000000   0.000000   0.000000   0.000000
    37  C    0.000000   0.000000   0.000000   0.000000   0.000000   0.000000
    38  C    0.000000   0.000000   0.000000   0.000000   0.000000   0.000000
    39  S    0.000000   0.000000   0.000000   0.000000   0.000000   0.000000
    40  C    0.000000   0.000000   0.000000   0.000000   0.000000   0.000000
    41  H    0.000000   0.000000   0.000000   0.000000   0.000000   0.000000
    42  C    0.000000   0.000000   0.000000   0.000000   0.000000   0.000000
    43  H    0.000000   0.000000   0.000000   0.000000   0.000000   0.000000
    44  H    0.000000   0.000000   0.000000   0.000000   0.000000   0.000000
             25         26         27         28         29         30
     1  C    0.000000   0.000000   0.000000   0.000000   0.000000   0.000000
     2  C    0.000000   0.000000   0.000000   0.000000   0.000000   0.000000
     3  C    0.000000   0.000000   0.000000   0.000000   0.000000   0.000000
     4  C    0.000000   0.000000   0.000000   0.000000   0.000000   0.000000
     5  S    0.000000   0.000000   0.000000   0.000000   0.000000   0.000000
     6  H    0.000000   0.000000   0.000000   0.000000   0.000000   0.000000
     7  H    0.000000   0.000000   0.000000   0.000000   0.000000   0.000000
     8  H    0.000000   0.000000   0.000000   0.000000   0.000000   0.000000
     9  C    0.000000   0.000000   0.000000   0.000000   0.000000   0.000000
    10  C    0.000000   0.000000   0.000000   0.000000   0.000000   0.000000
    11  S    0.000000   0.000000   0.000000   0.000000   0.000000   0.000000
    12  C    0.000000   0.000000   0.000000   0.000000   0.000000   0.000000
    13  H    0.000000   0.000000   0.000000   0.000000   0.000000   0.000000
    14  C    0.000000   0.000000   0.000000   0.000000   0.000000   0.000000
    15  H    0.000000   0.000000   0.000000   0.000000   0.000000   0.000000
    16  C    0.000003   0.000000  -0.000001   0.000000   0.000000   0.000000
    17  C   -0.000009   0.000000   0.000000   0.000000   0.000000   0.000000
    18  S   -0.000112  -0.000009  -0.000010   0.000003   0.000000   0.000000
    19  C   -0.000140   0.000012   0.000001   0.000014   0.000000   0.000000
    20  H    0.000000   0.000000   0.000000   0.000000   0.000000   0.000000
    21  C    0.000861   0.000276   0.000037   0.000208   0.000000  -0.000003
    22  H   -0.000010   0.000000   0.000000  -0.000001   0.000000   0.000000
    23  C    0.008142  -0.005409  -0.000059  -0.004918  -0.000012   0.000135
    24  C   -0.000712  -0.023375   0.000135  -0.006806   0.000066   0.000240
    25  S   -0.039110  -0.001306  -0.000014   0.001950  -0.000014   0.001648
    26  C   -0.001306   0.033819   0.000136   0.025856   0.000347  -0.002514
    27  H   -0.000014   0.000136  -0.003476  -0.000007   0.000064   0.000000
    28  C    0.001950   0.025856  -0.000007   0.115805  -0.000182  -0.028793
    29  H   -0.000014   0.000347   0.000064  -0.000182  -0.002048   0.000064
    30  C    0.001648  -0.002514   0.000000  -0.028793   0.000064   0.013104
    31  C    0.000165  -0.000245   0.000000  -0.004057   0.000002   0.020948
    32  S   -0.000087  -0.000369   0.000000  -0.000425  -0.000022   0.010961
    33  C   -0.000018   0.000010   0.000000   0.000227   0.000000  -0.003236
    34  H   -0.000001  -0.000001   0.000000   0.000010   0.000000   0.000069
    35  C   -0.000001   0.000011   0.000000   0.000246   0.000000  -0.003797
    36  H    0.000000   0.000000   0.000000   0.000000   0.000000  -0.000015
    37  C    0.000000   0.000000   0.000000  -0.000002   0.000000   0.000057
    38  C    0.000000   0.000000   0.000000   0.000000   0.000000   0.000009
    39  S    0.000000   0.000000   0.000000   0.000000   0.000000   0.000006
    40  C    0.000000   0.000000   0.000000   0.000000   0.000000   0.000000
    41  H    0.000000   0.000000   0.000000   0.000000   0.000000  -0.000001
    42  C    0.000000   0.000000   0.000000   0.000000   0.000000   0.000000
    43  H    0.000000   0.000000   0.000000   0.000000   0.000000   0.000000
    44  H    0.000000   0.000000   0.000000   0.000000   0.000000   0.000000
             31         32         33         34         35         36
     1  C    0.000000   0.000000   0.000000   0.000000   0.000000   0.000000
     2  C    0.000000   0.000000   0.000000   0.000000   0.000000   0.000000
     3  C    0.000000   0.000000   0.000000   0.000000   0.000000   0.000000
     4  C    0.000000   0.000000   0.000000   0.000000   0.000000   0.000000
     5  S    0.000000   0.000000   0.000000   0.000000   0.000000   0.000000
     6  H    0.000000   0.000000   0.000000   0.000000   0.000000   0.000000
     7  H    0.000000   0.000000   0.000000   0.000000   0.000000   0.000000
     8  H    0.000000   0.000000   0.000000   0.000000   0.000000   0.000000
     9  C    0.000000   0.000000   0.000000   0.000000   0.000000   0.000000
    10  C    0.000000   0.000000   0.000000   0.000000   0.000000   0.000000
    11  S    0.000000   0.000000   0.000000   0.000000   0.000000   0.000000
    12  C    0.000000   0.000000   0.000000   0.000000   0.000000   0.000000
    13  H    0.000000   0.000000   0.000000   0.000000   0.000000   0.000000
    14  C    0.000000   0.000000   0.000000   0.000000   0.000000   0.000000
    15  H    0.000000   0.000000   0.000000   0.000000   0.000000   0.000000
    16  C    0.000000   0.000000   0.000000   0.000000   0.000000   0.000000
    17  C    0.000000   0.000000   0.000000   0.000000   0.000000   0.000000
    18  S    0.000000   0.000000   0.000000   0.000000   0.000000   0.000000
    19  C    0.000000   0.000000   0.000000   0.000000   0.000000   0.000000
    20  H    0.000000   0.000000   0.000000   0.000000   0.000000   0.000000
    21  C    0.000000   0.000000   0.000000   0.000000   0.000000   0.000000
    22  H    0.000000   0.000000   0.000000   0.000000   0.000000   0.000000
    23  C    0.000013   0.000005   0.000000  -0.000001   0.000000   0.000000
    24  C    0.000012   0.000007   0.000000   0.000000   0.000000   0.000000
    25  S    0.000165  -0.000087  -0.000018  -0.000001  -0.000001   0.000000
    26  C   -0.000245  -0.000369   0.000010  -0.000001   0.000011   0.000000
    27  H    0.000000   0.000000   0.000000   0.000000   0.000000   0.000000
    28  C   -0.004057  -0.000425   0.000227   0.000010   0.000246   0.000000
    29  H    0.000002  -0.000022   0.000000   0.000000   0.000000   0.000000
    30  C    0.020948   0.010961  -0.003236   0.000069  -0.003797  -0.000015
    31  C    0.090939   0.000244  -0.017581  -0.000055  -0.006773  -0.000014
    32  S    0.000244  -0.023385  -0.001262  -0.000014  -0.005171  -0.000014
    33  C   -0.017581  -0.001262  -0.004614   0.000175   0.019208   0.000484
    34  H   -0.000055  -0.000014   0.000175  -0.004157  -0.000003   0.000051
    35  C   -0.006773  -0.005171   0.019208  -0.000003   0.136739  -0.000235
    36  H   -0.000014  -0.000014   0.000484   0.000051  -0.000235  -0.000485
    37  C    0.000136   0.001557  -0.001300   0.000000  -0.017316   0.000075
    38  C    0.000009   0.000400  -0.000164   0.000000  -0.003581   0.000002
    39  S    0.000025  -0.000020  -0.000398   0.000000  -0.001711  -0.000033
    40  C    0.000000  -0.000013   0.000005   0.000000   0.000115   0.000000
    41  H    0.000000   0.000004  -0.000001   0.000000  -0.000004   0.000000
    42  C    0.000000  -0.000004   0.000007   0.000000   0.000219   0.000000
    43  H    0.000000   0.000000   0.000000   0.000000  -0.000001   0.000000
    44  H    0.000000   0.000000   0.000000   0.000000   0.000000   0.000000
             37         38         39         40         41         42
     1  C    0.000000   0.000000   0.000000   0.000000   0.000000   0.000000
     2  C    0.000000   0.000000   0.000000   0.000000   0.000000   0.000000
     3  C    0.000000   0.000000   0.000000   0.000000   0.000000   0.000000
     4  C    0.000000   0.000000   0.000000   0.000000   0.000000   0.000000
     5  S    0.000000   0.000000   0.000000   0.000000   0.000000   0.000000
     6  H    0.000000   0.000000   0.000000   0.000000   0.000000   0.000000
     7  H    0.000000   0.000000   0.000000   0.000000   0.000000   0.000000
     8  H    0.000000   0.000000   0.000000   0.000000   0.000000   0.000000
     9  C    0.000000   0.000000   0.000000   0.000000   0.000000   0.000000
    10  C    0.000000   0.000000   0.000000   0.000000   0.000000   0.000000
    11  S    0.000000   0.000000   0.000000   0.000000   0.000000   0.000000
    12  C    0.000000   0.000000   0.000000   0.000000   0.000000   0.000000
    13  H    0.000000   0.000000   0.000000   0.000000   0.000000   0.000000
    14  C    0.000000   0.000000   0.000000   0.000000   0.000000   0.000000
    15  H    0.000000   0.000000   0.000000   0.000000   0.000000   0.000000
    16  C    0.000000   0.000000   0.000000   0.000000   0.000000   0.000000
    17  C    0.000000   0.000000   0.000000   0.000000   0.000000   0.000000
    18  S    0.000000   0.000000   0.000000   0.000000   0.000000   0.000000
    19  C    0.000000   0.000000   0.000000   0.000000   0.000000   0.000000
    20  H    0.000000   0.000000   0.000000   0.000000   0.000000   0.000000
    21  C    0.000000   0.000000   0.000000   0.000000   0.000000   0.000000
    22  H    0.000000   0.000000   0.000000   0.000000   0.000000   0.000000
    23  C    0.000000   0.000000   0.000000   0.000000   0.000000   0.000000
    24  C    0.000000   0.000000   0.000000   0.000000   0.000000   0.000000
    25  S    0.000000   0.000000   0.000000   0.000000   0.000000   0.000000
    26  C    0.000000   0.000000   0.000000   0.000000   0.000000   0.000000
    27  H    0.000000   0.000000   0.000000   0.000000   0.000000   0.000000
    28  C   -0.000002   0.000000   0.000000   0.000000   0.000000   0.000000
    29  H    0.000000   0.000000   0.000000   0.000000   0.000000   0.000000
    30  C    0.000057   0.000009   0.000006   0.000000  -0.000001   0.000000
    31  C    0.000136   0.000009   0.000025   0.000000   0.000000   0.000000
    32  S    0.001557   0.000400  -0.000020  -0.000013   0.000004  -0.000004
    33  C   -0.001300  -0.000164  -0.000398   0.000005  -0.000001   0.000007
    34  H    0.000000   0.000000   0.000000   0.000000   0.000000   0.000000
    35  C   -0.017316  -0.003581  -0.001711   0.000115  -0.000004   0.000219
    36  H    0.000075   0.000002  -0.000033   0.000000   0.000000   0.000000
    37  C   -0.021688   0.011003   0.008496  -0.001160   0.000157  -0.001738
    38  C    0.011003   0.075002   0.001144  -0.007513  -0.000170  -0.004850
    39  S    0.008496   0.001144   0.005280  -0.000659  -0.000013  -0.009688
    40  C   -0.001160  -0.007513  -0.000659  -0.021066   0.000193   0.007318
    41  H    0.000157  -0.000170  -0.000013   0.000193  -0.003437  -0.000017
    42  C   -0.001738  -0.004850  -0.009688   0.007318  -0.000017   0.094151
    43  H   -0.000013  -0.000057  -0.000008   0.000364   0.000028  -0.000115
    44  H   -0.000010   0.000005   0.000191  -0.000153   0.000000  -0.000423
             43         44
     1  C    0.000000   0.000000
     2  C    0.000000   0.000000
     3  C    0.000000   0.000000
     4  C    0.000000   0.000000
     5  S    0.000000   0.000000
     6  H    0.000000   0.000000
     7  H    0.000000   0.000000
     8  H    0.000000   0.000000
     9  C    0.000000   0.000000
    10  C    0.000000   0.000000
    11  S    0.000000   0.000000
    12  C    0.000000   0.000000
    13  H    0.000000   0.000000
    14  C    0.000000   0.000000
    15  H    0.000000   0.000000
    16  C    0.000000   0.000000
    17  C    0.000000   0.000000
    18  S    0.000000   0.000000
    19  C    0.000000   0.000000
    20  H    0.000000   0.000000
    21  C    0.000000   0.000000
    22  H    0.000000   0.000000
    23  C    0.000000   0.000000
    24  C    0.000000   0.000000
    25  S    0.000000   0.000000
    26  C    0.000000   0.000000
    27  H    0.000000   0.000000
    28  C    0.000000   0.000000
    29  H    0.000000   0.000000
    30  C    0.000000   0.000000
    31  C    0.000000   0.000000
    32  S    0.000000   0.000000
    33  C    0.000000   0.000000
    34  H    0.000000   0.000000
    35  C   -0.000001   0.000000
    36  H    0.000000   0.000000
    37  C   -0.000013  -0.000010
    38  C   -0.000057   0.000005
    39  S   -0.000008   0.000191
    40  C    0.000364  -0.000153
    41  H    0.000028   0.000000
    42  C   -0.000115  -0.000423
    43  H    0.000456   0.000016
    44  H    0.000016  -0.003843
 Mulliken atomic spin densities:
              1
     1  C   -0.021747
     2  C    0.071239
     3  C   -0.022568
     4  C    0.084861
     5  S    0.002611
     6  H   -0.003260
     7  H    0.000669
     8  H   -0.004216
     9  C    0.117946
    10  C   -0.008460
    11  S   -0.017607
    12  C    0.083768
    13  H   -0.000185
    14  C    0.008883
    15  H   -0.003927
    16  C    0.099126
    17  C    0.027239
    18  S   -0.028764
    19  C    0.063139
    20  H   -0.001735
    21  C    0.056183
    22  H   -0.003195
    23  C    0.056183
    24  C    0.063139
    25  S   -0.028764
    26  C    0.027239
    27  H   -0.003195
    28  C    0.099126
    29  H   -0.001735
    30  C    0.008883
    31  C    0.083768
    32  S   -0.017607
    33  C   -0.008460
    34  H   -0.003927
    35  C    0.117946
    36  H   -0.000185
    37  C   -0.021747
    38  C    0.071239
    39  S    0.002611
    40  C   -0.022568
    41  H   -0.003260
    42  C    0.084861
    43  H    0.000669
    44  H   -0.004216
 Sum of Mulliken atomic spin densities =   1.00000
 Electronic spatial extent (au):  <R**2>=          43025.6030
 Charge=              1.0000 electrons
 Dipole moment (field-independent basis, Debye):
    X=              0.0000    Y=              0.0000    Z=              0.0000  Tot=              0.0000
 Quadrupole moment (field-independent basis, Debye-Ang):
   XX=           -170.3609   YY=             70.9949   ZZ=           -221.1741
   XY=             51.3019   XZ=              0.0000   YZ=              0.0000
 Traceless Quadrupole moment (field-independent basis, Debye-Ang):
   XX=            -63.5142   YY=            177.8416   ZZ=           -114.3274
   XY=             51.3019   XZ=              0.0000   YZ=              0.0000
 Octapole moment (field-independent basis, Debye-Ang**2):
  XXX=              0.0000  YYY=              0.0000  ZZZ=              0.0000  XYY=              0.0000
  XXY=              0.0000  XXZ=              0.0000  XZZ=              0.0000  YZZ=              0.0000
  YYZ=              0.0000  XYZ=              0.0000
 Hexadecapole moment (field-independent basis, Debye-Ang**3):
 XXXX=          -4285.5993 YYYY=         -22833.5797 ZZZZ=           -248.6308 XXXY=          -5438.2333
 XXXZ=              0.0000 YYYX=           -839.9139 YYYZ=              0.0000 ZZZX=              0.0000
 ZZZY=              0.0000 XXYY=          -7731.0784 XXZZ=           -893.3088 YYZZ=          -9709.7413
 XXYZ=              0.0000 YYXZ=              0.0000 ZZXY=          -2232.3770
 N-N= 3.213919463581D+03 E-N=-2.130512980738D+04  KE= 4.941791877993D+03
 Symmetry AG   KE= 2.281823843874D+03
 Symmetry BG   KE= 1.908922028166D+02
 Symmetry AU   KE= 1.930556220035D+02
 Symmetry BU   KE= 2.276020209299D+03
 Leave Link  601 at Fri Apr  8 11:49:05 2011, MaxMem= 1441792000 cpu:       8.3
 (Enter /apps/gaussian/g09/g09/l9999.exe)
 1\1\GINC-CX1-15-10-1\SP\UTD-B3LYP-FC\6-31G(d)\C24H14S6(1+,2)\SPF310\08
 -Apr-2011\0\\#p sp B3LYP/6-31g* td(singlets,nstates=3) geom=allcheck\\
 Title Card Required\\1,2\C,0,-8.498404404,0.1243701533,0.\C,0,-9.07164
 69943,1.3892442355,0.\C,0,-10.4847200767,1.3663904729,0.\C,0,-10.99313
 86377,0.0889772371,0.\S,0,-9.7521062297,-1.1099615701,0.\H,0,-8.487998
 1016,2.3038745761,0.\H,0,-11.1050452359,2.2549832259,0.\H,0,-12.031636
 6936,-0.2149477834,0.\C,0,-7.1109239771,-0.2307526705,0.\C,0,-6.542178
 2864,-1.5076539452,0.\S,0,-5.859449083,0.9955010324,0.\C,0,-5.14640175
 75,-1.5021541218,0.\H,0,-7.1372735204,-2.4138984459,0.\C,0,-4.58520673
 03,-0.2213682245,0.\H,0,-4.5472110472,-2.4064868544,0.\C,0,-3.21517234
 58,0.1440439657,0.\C,0,-2.6588573592,1.4334623308,0.\S,0,-1.9407942213
 ,-1.067009153,0.\C,0,-1.2691129781,1.4469948161,0.\H,0,-3.2660457912,2
 .3318520536,0.\C,0,-0.68645966,0.1694651019,0.\H,0,-0.6806368756,2.358
 0689475,0.\C,0,0.68645966,-0.1694651019,0.\C,0,1.2691129781,-1.4469948
 161,0.\S,0,1.9407942213,1.067009153,0.\C,0,2.6588573592,-1.4334623308,
 0.\H,0,0.6806368756,-2.3580689475,0.\C,0,3.2151723458,-0.1440439657,0.
 \H,0,3.2660457912,-2.3318520536,0.\C,0,4.5852067303,0.2213682245,0.\C,
 0,5.1464017575,1.5021541218,0.\S,0,5.859449083,-0.9955010324,0.\C,0,6.
 5421782864,1.5076539452,0.\H,0,4.5472110472,2.4064868544,0.\C,0,7.1109
 239771,0.2307526705,0.\H,0,7.1372735204,2.4138984459,0.\C,0,8.49840440
 4,-0.1243701533,0.\C,0,9.0716469943,-1.3892442355,0.\S,0,9.7521062297,
 1.1099615701,0.\C,0,10.4847200767,-1.3663904729,0.\H,0,8.4879981016,-2
 .3038745761,0.\C,0,10.9931386377,-0.0889772371,0.\H,0,11.1050452359,-2
 .2549832259,0.\H,0,12.0316366936,0.2149477834,0.\\Version=EM64L-G09Rev
 A.02\State=2-BG\HF=-3311.866719\S2=0.774153\S2-1=0.\S2A=0.750385\RMSD=
 6.628e-09\PG=C02H [SGH(C24H14S6)]\\@


 ALL MY ATTEMPTS TO ADAPT THE THEORETICAL FOUNDATIONS OF PHYSICS
 TO THESE NEW NOTIONS FAILED COMPLETELY. IT WAS AS IF THE GROUND HAD
 BEEN PULLED OUT FROM UNDER ONE WITH NO FIRM FOUNDATION TO BE SEEN ANYWHERE,
 UPON WHICH ONE COULD HAVE BUILT.  -- A.EINSTEIN
 Job cpu time:  0 days  2 hours 52 minutes 43.5 seconds.
 File lengths (MBytes):  RWF=    414 Int=      0 D2E=      0 Chk=     51 Scr=      1
 Normal termination of Gaussian 09 at Fri Apr  8 11:49:05 2011.
