 Entering Gaussian System, Link 0=g03
 Input=P3HT_4_B3LYP_631GSTAR_TDDFT.com
 Output=P3HT_4_B3LYP_631GSTAR_TDDFT.log
 Initial command:
 /apps/gaussian/g09/g09/l1.exe /tmp/pbs.5444146.cx1/Gau-7411.inp -scrdir=/tmp/pbs.5444146.cx1/
 Entering Link 1 = /apps/gaussian/g09/g09/l1.exe PID=      7426.
  
 Copyright (c) 1988,1990,1992,1993,1995,1998,2003,2009, Gaussian, Inc.
                  All Rights Reserved.
  
 This is part of the Gaussian(R) 09 program.  It is based on
 the Gaussian(R) 03 system (copyright 2003, Gaussian, Inc.),
 the Gaussian(R) 98 system (copyright 1998, Gaussian, Inc.),
 the Gaussian(R) 94 system (copyright 1995, Gaussian, Inc.),
 the Gaussian 92(TM) system (copyright 1992, Gaussian, Inc.),
 the Gaussian 90(TM) system (copyright 1990, Gaussian, Inc.),
 the Gaussian 88(TM) system (copyright 1988, Gaussian, Inc.),
 the Gaussian 86(TM) system (copyright 1986, Carnegie Mellon
 University), and the Gaussian 82(TM) system (copyright 1983,
 Carnegie Mellon University). Gaussian is a federally registered
 trademark of Gaussian, Inc.
  
 This software contains proprietary and confidential information,
 including trade secrets, belonging to Gaussian, Inc.
  
 This software is provided under written license and may be
 used, copied, transmitted, or stored only in accord with that
 written license.
  
 The following legend is applicable only to US Government
 contracts under FAR:
  
                    RESTRICTED RIGHTS LEGEND
  
 Use, reproduction and disclosure by the US Government is
 subject to restrictions as set forth in subparagraphs (a)
 and (c) of the Commercial Computer Software - Restricted
 Rights clause in FAR 52.227-19.
  
 Gaussian, Inc.
 340 Quinnipiac St., Bldg. 40, Wallingford CT 06492
  
  
 ---------------------------------------------------------------
 Warning -- This program may not be used in any manner that
 competes with the business of Gaussian, Inc. or will provide
 assistance to any competitor of Gaussian, Inc.  The licensee
 of this program is prohibited from giving any competitor of
 Gaussian, Inc. access to this program.  By using this program,
 the user acknowledges that Gaussian, Inc. is engaged in the
 business of creating and licensing software in the field of
 computational chemistry and represents and warrants to the
 licensee that it is not a competitor of Gaussian, Inc. and that
 it will not use this program in any manner prohibited above.
 ---------------------------------------------------------------
  

 Cite this work as:
 Gaussian 09, Revision A.02,
 M. J. Frisch, G. W. Trucks, H. B. Schlegel, G. E. Scuseria, 
 M. A. Robb, J. R. Cheeseman, G. Scalmani, V. Barone, B. Mennucci, 
 G. A. Petersson, H. Nakatsuji, M. Caricato, X. Li, H. P. Hratchian, 
 A. F. Izmaylov, J. Bloino, G. Zheng, J. L. Sonnenberg, M. Hada, 
 M. Ehara, K. Toyota, R. Fukuda, J. Hasegawa, M. Ishida, T. Nakajima, 
 Y. Honda, O. Kitao, H. Nakai, T. Vreven, J. A. Montgomery, Jr., 
 J. E. Peralta, F. Ogliaro, M. Bearpark, J. J. Heyd, E. Brothers, 
 K. N. Kudin, V. N. Staroverov, R. Kobayashi, J. Normand, 
 K. Raghavachari, A. Rendell, J. C. Burant, S. S. Iyengar, J. Tomasi, 
 M. Cossi, N. Rega, J. M. Millam, M. Klene, J. E. Knox, J. B. Cross, 
 V. Bakken, C. Adamo, J. Jaramillo, R. Gomperts, R. E. Stratmann, 
 O. Yazyev, A. J. Austin, R. Cammi, C. Pomelli, J. W. Ochterski, 
 R. L. Martin, K. Morokuma, V. G. Zakrzewski, G. A. Voth, 
 P. Salvador, J. J. Dannenberg, S. Dapprich, A. D. Daniels, 
 O. Farkas, J. B. Foresman, J. V. Ortiz, J. Cioslowski, 
 and D. J. Fox, Gaussian, Inc., Wallingford CT, 2009.
 
 ******************************************
 Gaussian 09:  EM64L-G09RevA.02 11-Jun-2009
                 8-Apr-2011 
 ******************************************
 %chk=P3HT_4_B3LYP_631GSTAR_TDDFT.chk
 %mem=11500MB
 %nprocshared=8
 Will use up to    8 processors via shared memory.
 -------------------------------------------------------
 #p sp B3LYP/6-31g* td(singlets,nstates=3) geom=allcheck
 -------------------------------------------------------
 1/29=7,38=1/1;
 2/12=2,40=1/2;
 3/5=1,6=6,7=1,11=2,14=-4,16=1,25=1,30=1,74=-5/1,2,8,3;
 4//1;
 5/5=2,38=5/2;
 8/6=1,10=2,108=3/1;
 9/41=3,42=1,48=1/14;
 6/7=2,8=2,9=2,10=2/1;
 99/5=1,9=1/99;
 Leave Link    1 at Fri Apr  8 11:21:17 2011, MaxMem= 1507328000 cpu:       0.2
 (Enter /apps/gaussian/g09/g09/l101.exe)
 -------------------
 Title Card Required
 -------------------
 Redundant internal coordinates taken from checkpoint file:
 P3HT_4_B3LYP_631GSTAR_TDDFT.chk
 Charge =  0 Multiplicity = 1
 C,0,-4.6261701945,0.1177775186,0.
 C,0,-5.203378157,1.3710487928,0.
 C,0,-6.6259880591,1.3441917603,0.
 C,0,-7.1344051894,0.0745341696,0.
 S,0,-5.8752826968,-1.1198094764,0.
 H,0,-4.6223716253,2.2873316898,0.
 H,0,-7.2438754209,2.2354924399,0.
 H,0,-8.1703713701,-0.2362148236,0.
 C,0,-3.2253159341,-0.2415219504,0.
 C,0,-2.6467648546,-1.4943964794,0.
 S,0,-1.9790333374,0.9978144278,0.
 C,0,-1.2320911635,-1.4727140199,0.
 H,0,-3.2272266662,-2.4109523939,0.
 C,0,-0.6927410364,-0.2014445421,0.
 H,0,-0.6239383158,-2.371153747,0.
 C,0,0.6924702271,0.2009365391,0.
 C,0,1.2318203542,1.4722060169,0.
 S,0,1.9787625281,-0.9983224308,0.
 C,0,2.6464940453,1.4938884765,0.
 H,0,0.6236675065,2.3706457441,0.
 C,0,3.2250451248,0.2410139475,0.
 H,0,3.2269558569,2.410444391,0.
 C,0,4.6258993853,-0.1182855216,0.
 C,0,5.2031073477,-1.3715567958,0.
 S,0,5.8750118875,1.1193014734,0.
 C,0,6.6257172498,-1.3446997633,0.
 H,0,4.622100816,-2.2878396928,0.
 C,0,7.1341343801,-0.0750421726,0.
 H,0,7.2436046116,-2.2360004428,0.
 H,0,8.1701005608,0.2357068207,0.
 Recover connectivity data from disk.
                    Isotopes and Nuclear Properties:
 (Nuclear quadrupole moments (NQMom) in fm**2, nuclear magnetic moments (NMagM)
  in nuclear magnetons)

  Atom         1           2           3           4           5           6           7           8           9          10
 IAtWgt=          12          12          12          12          32           1           1           1          12          12
 AtmWgt=  12.0000000  12.0000000  12.0000000  12.0000000  31.9720718   1.0078250   1.0078250   1.0078250  12.0000000  12.0000000
 NucSpn=           0           0           0           0           0           1           1           1           0           0
 AtZEff=  -3.6000000  -3.6000000  -3.6000000  -3.6000000 -13.6000000  -1.0000000  -1.0000000  -1.0000000  -3.6000000  -3.6000000
 NQMom=    0.0000000   0.0000000   0.0000000   0.0000000   0.0000000   0.0000000   0.0000000   0.0000000   0.0000000   0.0000000
 NMagM=    0.0000000   0.0000000   0.0000000   0.0000000   0.0000000   2.7928460   2.7928460   2.7928460   0.0000000   0.0000000

  Atom        11          12          13          14          15          16          17          18          19          20
 IAtWgt=          32          12           1          12           1          12          12          32          12           1
 AtmWgt=  31.9720718  12.0000000   1.0078250  12.0000000   1.0078250  12.0000000  12.0000000  31.9720718  12.0000000   1.0078250
 NucSpn=           0           0           1           0           1           0           0           0           0           1
 AtZEff= -13.6000000  -3.6000000  -1.0000000  -3.6000000  -1.0000000  -3.6000000  -3.6000000 -13.6000000  -3.6000000  -1.0000000
 NQMom=    0.0000000   0.0000000   0.0000000   0.0000000   0.0000000   0.0000000   0.0000000   0.0000000   0.0000000   0.0000000
 NMagM=    0.0000000   0.0000000   2.7928460   0.0000000   2.7928460   0.0000000   0.0000000   0.0000000   0.0000000   2.7928460

  Atom        21          22          23          24          25          26          27          28          29          30
 IAtWgt=          12           1          12          12          32          12           1          12           1           1
 AtmWgt=  12.0000000   1.0078250  12.0000000  12.0000000  31.9720718  12.0000000   1.0078250  12.0000000   1.0078250   1.0078250
 NucSpn=           0           1           0           0           0           0           1           0           1           1
 AtZEff=  -3.6000000  -1.0000000  -3.6000000  -3.6000000 -13.6000000  -3.6000000  -1.0000000  -3.6000000  -1.0000000  -1.0000000
 NQMom=    0.0000000   0.0000000   0.0000000   0.0000000   0.0000000   0.0000000   0.0000000   0.0000000   0.0000000   0.0000000
 NMagM=    0.0000000   2.7928460   0.0000000   0.0000000   0.0000000   0.0000000   2.7928460   0.0000000   2.7928460   2.7928460
 Leave Link  101 at Fri Apr  8 11:21:17 2011, MaxMem= 1507328000 cpu:       0.9
 (Enter /apps/gaussian/g09/g09/l202.exe)
                          Input orientation:                          
 ---------------------------------------------------------------------
 Center     Atomic      Atomic             Coordinates (Angstroms)
 Number     Number       Type             X           Y           Z
 ---------------------------------------------------------------------
      1          6           0       -4.626170    0.117778    0.000000
      2          6           0       -5.203378    1.371049    0.000000
      3          6           0       -6.625988    1.344192    0.000000
      4          6           0       -7.134405    0.074534    0.000000
      5         16           0       -5.875283   -1.119809    0.000000
      6          1           0       -4.622372    2.287332    0.000000
      7          1           0       -7.243875    2.235492    0.000000
      8          1           0       -8.170371   -0.236215    0.000000
      9          6           0       -3.225316   -0.241522    0.000000
     10          6           0       -2.646765   -1.494396    0.000000
     11         16           0       -1.979033    0.997814    0.000000
     12          6           0       -1.232091   -1.472714    0.000000
     13          1           0       -3.227227   -2.410952    0.000000
     14          6           0       -0.692741   -0.201445    0.000000
     15          1           0       -0.623938   -2.371154    0.000000
     16          6           0        0.692470    0.200937    0.000000
     17          6           0        1.231820    1.472206    0.000000
     18         16           0        1.978763   -0.998322    0.000000
     19          6           0        2.646494    1.493888    0.000000
     20          1           0        0.623668    2.370646    0.000000
     21          6           0        3.225045    0.241014    0.000000
     22          1           0        3.226956    2.410444    0.000000
     23          6           0        4.625899   -0.118286    0.000000
     24          6           0        5.203107   -1.371557    0.000000
     25         16           0        5.875012    1.119301    0.000000
     26          6           0        6.625717   -1.344700    0.000000
     27          1           0        4.622101   -2.287840    0.000000
     28          6           0        7.134134   -0.075042    0.000000
     29          1           0        7.243605   -2.236000    0.000000
     30          1           0        8.170101    0.235707    0.000000
 ---------------------------------------------------------------------
                    Distance matrix (angstroms):
                    1          2          3          4          5
     1  C    0.000000
     2  C    1.379804   0.000000
     3  C    2.345925   1.422863   0.000000
     4  C    2.508608   2.325901   1.367669   0.000000
     5  S    1.758381   2.579890   2.575822   1.735467   0.000000
     6  H    2.169557   1.084962   2.214496   3.347654   3.630206
     7  H    3.367061   2.216053   1.084528   2.163729   3.623686
     8  H    3.561836   3.374366   2.209707   1.081569   2.459303
     9  C    1.446198   2.552080   3.752207   3.921845   2.791722
    10  C    2.552871   3.840189   4.887924   4.753994   3.250176
    11  S    2.789588   3.245875   4.659846   5.237395   4.434534
    12  C    3.748258   4.884476   6.085153   6.101745   4.656583
    13  H    2.889899   4.267166   5.064848   4.630733   2.946057
    14  C    3.946361   4.776880   6.131265   6.447573   5.263282
    15  H    4.713029   5.913996   7.058923   6.954680   5.398378
    16  C    5.319290   6.010839   7.407217   7.827896   6.699235
    17  C    6.012531   6.435994   7.858851   8.482171   7.565015
    18  S    6.698568   7.562874   8.917909   9.176102   7.854985
    19  C    7.401711   7.850833   9.273690   9.883347   8.913591
    20  H    5.712811   5.912162   7.321961   8.090724   7.376966
    21  C    7.852182   8.503840   9.912611  10.360788   9.201511
    22  H    8.180948   8.494167   9.910469  10.621407   9.762860
    23  C    9.255081   9.941469  11.346533  11.761885  10.548833
    24  C    9.941469  10.761823  12.136836  12.421972  11.081250
    25  S   10.548833  11.081250  12.503023  13.051302  11.961732
    26  C   11.346533  12.136836  13.521754  13.833119  12.503023
    27  H    9.556020  10.484632  11.819947  11.991507  10.562166
    28  C   11.761885  12.421972  13.833119  14.269324  13.051302
    29  H   12.100902  12.959097  14.324223  14.562477  13.166286
    30  H   12.796814  13.421585  14.837553  15.305354  14.110642
                    6          7          8          9         10
     6  H    0.000000
     7  H    2.622016   0.000000
     8  H    4.353917   2.639646   0.000000
     9  C    2.889094   4.720638   4.945058   0.000000
    10  C    4.266672   5.919924   5.665090   1.380006   0.000000
    11  S    2.941104   5.408365   6.313121   1.757605   2.580113
    12  C    5.062800   7.063451   7.047600   2.342814   1.414840
    13  H    4.901051   6.141898   5.400385   2.169431   1.084901
    14  C    4.651452   6.989708   7.477711   2.532892   2.343061
    15  H    6.139133   8.065033   7.842615   3.361919   2.204661
    16  C    5.709693   8.192985   8.873616   3.942692   3.744949
    17  C    5.910668   8.509996   9.556145   4.775241   4.883048
    18  S    7.373635   9.773158  10.177707   5.258819   4.652053
    19  C    7.312042   9.918134  10.954352   6.122892   6.078523
    20  H    5.246701   7.868704   9.172287   4.651676   5.063031
    21  C    8.109831  10.657215  11.405405   6.468385   6.122892
    22  H    7.850293  10.472293  11.700593   6.976012   7.053253
    23  C    9.556020  12.100902  12.796814   7.852182   7.401711
    24  C   10.484632  12.959097  13.421585   8.503840   7.850833
    25  S   10.562166  13.166286  14.110642   9.201511   8.913591
    26  C   11.819947  14.324223  14.837553   9.912611   9.273690
    27  H   10.314672  12.698895  12.955945   8.109831   7.312042
    28  C   11.991507  14.562477  15.305354  10.360788   9.883347
    29  H   12.698895  15.161838  15.543159  10.657215   9.918134
    30  H   12.955945  15.543159  16.347285  11.405405  10.954352
                   11         12         13         14         15
    11  S    0.000000
    12  C    2.580975   0.000000
    13  H    3.630107   2.204735   0.000000
    14  C    1.758627   1.380951   3.362372   0.000000
    15  H    3.631285   1.084917   2.603593   2.170800   0.000000
    16  C    2.787821   2.550499   4.710200   1.442470   2.889391
    17  C    3.245709   3.839715   5.912869   2.550499   4.267933
    18  S    4.432687   3.245709   5.394242   2.787821   2.942570
    19  C    4.652053   4.883048   7.053253   3.744949   5.063031
    20  H    2.942570   4.267933   6.139468   2.889391   4.903181
    21  C    5.258819   4.775241   6.976012   3.942692   4.651676
    22  H    5.394242   5.912869   8.056199   4.710200   6.139468
    23  C    6.698568   6.012531   8.180948   5.319290   5.712811
    24  C    7.562874   6.435994   8.494167   6.010839   5.912162
    25  S    7.854985   7.565015   9.762860   6.699235   7.376966
    26  C    8.917909   7.858851   9.910469   7.407217   7.321961
    27  H    7.373635   5.910668   7.850293   5.709693   5.246701
    28  C    9.176102   8.482171  10.621407   7.827896   8.090724
    29  H    9.773158   8.509996  10.472293   8.192985   7.868704
    30  H   10.177707   9.556145  11.700593   8.873616   9.172287
                   16         17         18         19         20
    16  C    0.000000
    17  C    1.380951   0.000000
    18  S    1.758627   2.580975   0.000000
    19  C    2.343061   1.414840   2.580113   0.000000
    20  H    2.170800   1.084917   3.631285   2.204661   0.000000
    21  C    2.532892   2.342814   1.757605   1.380006   3.361919
    22  H    3.362372   2.204735   3.630107   1.084901   2.603593
    23  C    3.946361   3.748258   2.789588   2.552871   4.713029
    24  C    4.776880   4.884476   3.245875   3.840189   5.913996
    25  S    5.263282   4.656583   4.434534   3.250176   5.398378
    26  C    6.131265   6.085153   4.659846   4.887924   7.058923
    27  H    4.651452   5.062800   2.941104   4.266672   6.139133
    28  C    6.447573   6.101745   5.237395   4.753994   6.954680
    29  H    6.989708   7.063451   5.408365   5.919924   8.065033
    30  H    7.477711   7.047600   6.313121   5.665090   7.842615
                   21         22         23         24         25
    21  C    0.000000
    22  H    2.169431   0.000000
    23  C    1.446198   2.889899   0.000000
    24  C    2.552080   4.267166   1.379804   0.000000
    25  S    2.791722   2.946057   1.758381   2.579890   0.000000
    26  C    3.752207   5.064848   2.345925   1.422863   2.575822
    27  H    2.889094   4.901051   2.169557   1.084962   3.630206
    28  C    3.921845   4.630733   2.508608   2.325901   1.735467
    29  H    4.720638   6.141898   3.367061   2.216053   3.623686
    30  H    4.945058   5.400385   3.561836   3.374366   2.459303
                   26         27         28         29         30
    26  C    0.000000
    27  H    2.214496   0.000000
    28  C    1.367669   3.347654   0.000000
    29  H    1.084528   2.622016   2.163729   0.000000
    30  H    2.209707   4.353917   1.081569   2.639646   0.000000
 Stoichiometry    C16H10S4
 Framework group  C2H[SGH(C16H10S4)]
 Deg. of freedom    29
 Full point group                 C2H     NOp   4
 Largest Abelian subgroup         C2H     NOp   4
 Largest concise Abelian subgroup C2      NOp   2
                         Standard orientation:                         
 ---------------------------------------------------------------------
 Center     Atomic      Atomic             Coordinates (Angstroms)
 Number     Number       Type             X           Y           Z
 ---------------------------------------------------------------------
      1          6           0       -0.042178    4.627348    0.000000
      2          6           0       -1.285819    5.225024    0.000000
      3          6           0       -1.235643    6.647003    0.000000
      4          6           0        0.042178    7.134537    0.000000
      5         16           0        1.215720    5.856004    0.000000
      6          1           0       -2.211503    4.659117    0.000000
      7          1           0       -2.116695    7.279419    0.000000
      8          1           0        0.369869    8.165270    0.000000
      9          6           0        0.294108    3.220792    0.000000
     10          6           0        1.537329    2.621779    0.000000
     11         16           0       -0.965493    1.994994    0.000000
     12          6           0        1.492458    1.207651    0.000000
     13          1           0        2.463278    3.187138    0.000000
     14          6           0        0.212518    0.689214    0.000000
     15          1           0        2.380808    0.584851    0.000000
     16          6           0       -0.212518   -0.689214    0.000000
     17          6           0       -1.492458   -1.207651    0.000000
     18         16           0        0.965493   -1.994994    0.000000
     19          6           0       -1.537329   -2.621779    0.000000
     20          1           0       -2.380808   -0.584851    0.000000
     21          6           0       -0.294108   -3.220792    0.000000
     22          1           0       -2.463278   -3.187138    0.000000
     23          6           0        0.042178   -4.627348    0.000000
     24          6           0        1.285819   -5.225024    0.000000
     25         16           0       -1.215720   -5.856004    0.000000
     26          6           0        1.235643   -6.647003    0.000000
     27          1           0        2.211503   -4.659117    0.000000
     28          6           0       -0.042178   -7.134537    0.000000
     29          1           0        2.116695   -7.279419    0.000000
     30          1           0       -0.369869   -8.165270    0.000000
 ---------------------------------------------------------------------
 Rotational constants (GHZ):      1.3141605      0.0758027      0.0716688
 Leave Link  202 at Fri Apr  8 11:21:18 2011, MaxMem= 1507328000 cpu:       0.2
 (Enter /apps/gaussian/g09/g09/l301.exe)
 Standard basis: 6-31G(d) (6D, 7F)
 Ernie: Thresh=  0.10000D-02 Tol=  0.10000D-05 Strict=F.
 There are   126 symmetry adapted basis functions of AG  symmetry.
 There are    42 symmetry adapted basis functions of BG  symmetry.
 There are    42 symmetry adapted basis functions of AU  symmetry.
 There are   126 symmetry adapted basis functions of BU  symmetry.
 Integral buffers will be    131072 words long.
 Raffenetti 2 integral format.
 Two-electron integral symmetry is turned on.
   336 basis functions,   696 primitive gaussians,   336 cartesian basis functions
    85 alpha electrons       85 beta electrons
       nuclear repulsion energy      1795.8626733103 Hartrees.
 IExCor=  402 DFT=T Ex+Corr=B3LYP ExCW=0 ScaHFX=  0.200000
 ScaDFX=  0.800000  0.720000  1.000000  0.810000 ScalE2=  1.000000  1.000000
 IRadAn=      0 IRanWt=     -1 IRanGd=            0 ICorTp=0
 NAtoms=   30 NActive=   30 NUniq=   15 SFac= 3.00D+00 NAtFMM=   80 NAOKFM=F Big=F
 Leave Link  301 at Fri Apr  8 11:21:18 2011, MaxMem= 1507328000 cpu:       0.9
 (Enter /apps/gaussian/g09/g09/l302.exe)
 NPDir=0 NMtPBC=     1 NCelOv=     1 NCel=       1 NClECP=     1 NCelD=      1
         NCelK=      1 NCelE2=     1 NClLst=     1 CellRange=     0.0.
 One-electron integrals computed using PRISM.
 One-electron integral symmetry used in STVInt
 NBasis=   336 RedAO= T  NBF=   126    42    42   126
 NBsUse=   336 1.00D-06 NBFU=   126    42    42   126
 Precomputing XC quadrature grid using
 IXCGrd= 2 IRadAn=           0 IRanWt=          -1 IRanGd=           0 AccXCQ= 1.00D-10.
 NRdTot=    1924 NPtTot=      245712 NUsed=      259583 NTot=      259615
 NSgBfM=   318   319   319   319   319 NAtAll=    30    30.
 Leave Link  302 at Fri Apr  8 11:21:19 2011, MaxMem= 1507328000 cpu:       3.9
 (Enter /apps/gaussian/g09/g09/l308.exe)
 Leave Link  308 at Fri Apr  8 11:21:19 2011, MaxMem= 1507328000 cpu:       1.0
 (Enter /apps/gaussian/g09/g09/l303.exe)
 DipDrv:  MaxL=1.
 Leave Link  303 at Fri Apr  8 11:21:20 2011, MaxMem= 1507328000 cpu:       1.1
 (Enter /apps/gaussian/g09/g09/l401.exe)
 Harris functional with IExCor=  402 diagonalized for initial guess.
 ExpMin= 1.17D-01 ExpMax= 2.19D+04 ExpMxC= 3.30D+03 IAcc=1 IRadAn=         1 AccDes= 0.00D+00
 HarFok:  IExCor=  402 AccDes= 0.00D+00 IRadAn=         1 IDoV= 1
 ScaDFX=  1.000000  1.000000  1.000000  1.000000
 FoFCou: FMM=F IPFlag=           0 FMFlag=      100000 FMFlg1=           0
         NFxFlg=           0 DoJE=T BraDBF=F KetDBF=T FulRan=T
         Omega=  0.000000  0.000000  1.000000  0.000000  0.000000 ICntrl=     500 IOpCl=  0
         NMat0=    1 NMatS0=    1 NMatT0=    0 NMatD0=    1 NMtDS0=    0 NMtDT0=    0
         I1Cent=           4 NGrid=           0.
 Petite list used in FoFCou.
 Harris En= -2208.54960873917    
 Initial guess orbital symmetries:
       Occupied  (BU) (AG) (BU) (AG) (AG) (BU) (AG) (BU) (AG) (BU)
                 (BU) (AG) (BU) (AG) (AG) (AG) (BU) (BU) (AG) (BU)
                 (BU) (AG) (AG) (BU) (BU) (AG) (AG) (BU) (AG) (BU)
                 (BU) (AG) (BG) (AU) (AU) (BG) (AG) (BU) (AG) (BU)
                 (AG) (BU) (AG) (BU) (AG) (BU) (AG) (BU) (AG) (BU)
                 (AG) (BU) (AG) (BU) (AG) (BU) (AG) (BU) (AG) (BU)
                 (AG) (BU) (AG) (BU) (AG) (BU) (AG) (AU) (BG) (AU)
                 (BU) (BG) (AG) (BU) (AG) (AU) (BU) (AG) (BG) (AU)
                 (BG) (AU) (BG) (AU) (BG)
       Virtual   (AU) (BG) (AU) (BG) (AU) (AG) (BU) (AG) (BU) (BG)
                 (AU) (BU) (BG) (AG) (AG) (BU) (AG) (BU) (BU) (AG)
                 (BU) (AG) (BU) (AG) (BU) (AG) (BU) (AG) (BU) (BU)
                 (AG) (BU) (AG) (AG) (BU) (AG) (BU) (AG) (BU) (AG)
                 (BU) (AG) (BU) (AU) (AG) (BU) (BG) (AU) (BG) (BU)
                 (AG) (AG) (BU) (AG) (BU) (AG) (BU) (AG) (BU) (AU)
                 (BG) (AG) (BG) (BU) (BU) (AU) (AG) (AU) (AG) (BU)
                 (AG) (BU) (BG) (BG) (AU) (AU) (BG) (BG) (AU) (BG)
                 (AU) (AU) (BG) (AG) (BU) (AG) (BU) (AG) (BU) (AG)
                 (BU) (AG) (BU) (BU) (AG) (BU) (AG) (AU) (BG) (BU)
                 (AU) (AG) (BG) (AU) (AG) (BU) (AG) (BU) (BU) (AG)
                 (BG) (AG) (BU) (BU) (AU) (AG) (BG) (AG) (BU) (AG)
                 (BU) (AG) (BU) (AG) (BU) (BU) (AG) (AG) (BU) (AG)
                 (BU) (AG) (BU) (AG) (BU) (AG) (BU) (AU) (BG) (BU)
                 (AG) (AU) (BG) (BU) (AU) (BG) (AU) (AG) (BU) (AG)
                 (BG) (AU) (AG) (BU) (BG) (AG) (AU) (BG) (BU) (BU)
                 (AG) (BU) (AG) (AU) (BG) (AU) (AG) (BU) (BG) (AU)
                 (AG) (BU) (AG) (AG) (BU) (AG) (BU) (BU) (AG) (BG)
                 (BU) (AG) (AU) (BG) (BU) (BU) (AG) (AG) (BU) (AG)
                 (AU) (BG) (BU) (AU) (AG) (BG) (AU) (BU) (AG) (BU)
                 (AG) (BU) (BU) (AG) (BG) (AG) (AU) (BG) (BU) (AU)
                 (BG) (AU) (BG) (AG) (BU) (AG) (BU) (BU) (AG) (AG)
                 (BU) (AG) (BU) (BU) (AG) (AG) (BU) (BU) (AG) (AG)
                 (BU) (BU) (AG) (AG) (BU) (AG) (BU) (BU) (AG) (AG)
                 (BU) (AG) (BU) (AG) (BU) (AG) (BU) (AG) (BU) (AG)
                 (BU)
 The electronic state of the initial guess is 1-AG.
 Leave Link  401 at Fri Apr  8 11:21:20 2011, MaxMem= 1507328000 cpu:       5.0
 (Enter /apps/gaussian/g09/g09/l502.exe)
 Closed shell SCF:
 Requested convergence on RMS density matrix=1.00D-08 within 128 cycles.
 Requested convergence on MAX density matrix=1.00D-06.
 Requested convergence on             energy=1.00D-06.
 No special actions if energy rises.
 Using DIIS extrapolation, IDIIS=  1040.
 Integral symmetry usage will be decided dynamically.
       259300 words used for storage of precomputed grid.
 IEnd=      621986 IEndB=      621986 NGot=  1507328000 MDV=  1506835887
 LenX=  1506835887 LenY=  1506722550
 Fock matrices will be formed incrementally for  20 cycles.
 Integral accuracy reduced to 1.0D-05 until final iterations.

 Cycle   1  Pass 0  IDiag  1:
 FoFCou: FMM=F IPFlag=           0 FMFlag=      100000 FMFlg1=           0
         NFxFlg=           0 DoJE=F BraDBF=F KetDBF=F FulRan=T
         Omega=  0.000000  0.000000  1.000000  0.000000  0.000000 ICntrl=       0 IOpCl=  0
         NMat0=    1 NMatS0=    1 NMatT0=    0 NMatD0=    1 NMtDS0=    0 NMtDT0=    0
         I1Cent=           0 NGrid=           0.
 Petite list used in FoFCou.
 E= -2207.65469280597    
 DIIS: error= 4.40D-02 at cycle   1 NSaved=   1.
 NSaved= 1 IEnMin= 1 EnMin= -2207.65469280597     IErMin= 1 ErrMin= 4.40D-02
 ErrMax= 4.40D-02 EMaxC= 1.00D-01 BMatC= 7.00D-01 BMatP= 7.00D-01
 IDIUse=3 WtCom= 5.60D-01 WtEn= 4.40D-01
 Coeff-Com:  0.100D+01
 Coeff-En:   0.100D+01
 Coeff:      0.100D+01
 Gap=     0.035 Goal=   None    Shift=    0.000
 GapD=    0.035 DampG=0.250 DampE=0.500 DampFc=0.2500 IDamp=-1.
 Damping current iteration by 2.50D-01
 RMSDP=7.73D-03 MaxDP=2.67D-01              OVMax= 5.10D-01

 Cycle   2  Pass 0  IDiag  1:
 RMSU=  1.36D-03    CP:  9.92D-01
 E= -2207.96129027504     Delta-E=       -0.306597469070 Rises=F Damp=T
 DIIS: error= 2.16D-02 at cycle   2 NSaved=   2.
 NSaved= 2 IEnMin= 2 EnMin= -2207.96129027504     IErMin= 2 ErrMin= 2.16D-02
 ErrMax= 2.16D-02 EMaxC= 1.00D-01 BMatC= 1.23D-01 BMatP= 7.00D-01
 IDIUse=3 WtCom= 7.84D-01 WtEn= 2.16D-01
 Coeff-Com: -0.596D+00 0.160D+01
 Coeff-En:   0.000D+00 0.100D+01
 Coeff:     -0.467D+00 0.147D+01
 Gap=     0.084 Goal=   None    Shift=    0.000
 RMSDP=1.81D-03 MaxDP=5.18D-02 DE=-3.07D-01 OVMax= 3.24D-01

 Cycle   3  Pass 0  IDiag  1:
 RMSU=  1.10D-03    CP:  9.79D-01  1.45D+00
 E= -2208.42194578740     Delta-E=       -0.460655512352 Rises=F Damp=F
 DIIS: error= 9.12D-03 at cycle   3 NSaved=   3.
 NSaved= 3 IEnMin= 3 EnMin= -2208.42194578740     IErMin= 3 ErrMin= 9.12D-03
 ErrMax= 9.12D-03 EMaxC= 1.00D-01 BMatC= 2.31D-02 BMatP= 1.23D-01
 IDIUse=3 WtCom= 9.09D-01 WtEn= 9.12D-02
 Coeff-Com: -0.155D+00 0.559D+00 0.596D+00
 Coeff-En:   0.000D+00 0.000D+00 0.100D+01
 Coeff:     -0.141D+00 0.508D+00 0.633D+00
 Gap=     0.112 Goal=   None    Shift=    0.000
 RMSDP=7.62D-04 MaxDP=2.84D-02 DE=-4.61D-01 OVMax= 4.66D-02

 Cycle   4  Pass 0  IDiag  1:
 RMSU=  4.53D-04    CP:  9.82D-01  1.30D+00  8.15D-01
 E= -2208.43744721597     Delta-E=       -0.015501428569 Rises=F Damp=F
 DIIS: error= 4.28D-03 at cycle   4 NSaved=   4.
 NSaved= 4 IEnMin= 4 EnMin= -2208.43744721597     IErMin= 4 ErrMin= 4.28D-03
 ErrMax= 4.28D-03 EMaxC= 1.00D-01 BMatC= 8.86D-03 BMatP= 2.31D-02
 IDIUse=3 WtCom= 9.57D-01 WtEn= 4.28D-02
 Coeff-Com:  0.398D-01-0.119D-01 0.408D+00 0.564D+00
 Coeff-En:   0.000D+00 0.000D+00 0.289D+00 0.711D+00
 Coeff:      0.381D-01-0.114D-01 0.403D+00 0.570D+00
 Gap=     0.111 Goal=   None    Shift=    0.000
 RMSDP=3.75D-04 MaxDP=1.44D-02 DE=-1.55D-02 OVMax= 2.68D-02

 Cycle   5  Pass 0  IDiag  1:
 RMSU=  1.27D-04    CP:  9.81D-01  1.34D+00  8.92D-01  5.31D-01
 E= -2208.44666236367     Delta-E=       -0.009215147708 Rises=F Damp=F
 DIIS: error= 9.22D-04 at cycle   5 NSaved=   5.
 NSaved= 5 IEnMin= 5 EnMin= -2208.44666236367     IErMin= 5 ErrMin= 9.22D-04
 ErrMax= 9.22D-04 EMaxC= 1.00D-01 BMatC= 3.53D-04 BMatP= 8.86D-03
 IDIUse=3 WtCom= 9.91D-01 WtEn= 9.22D-03
 Coeff-Com:  0.264D-01-0.320D-01 0.157D+00 0.276D+00 0.572D+00
 Coeff-En:   0.000D+00 0.000D+00 0.000D+00 0.000D+00 0.100D+01
 Coeff:      0.262D-01-0.317D-01 0.156D+00 0.274D+00 0.576D+00
 Gap=     0.111 Goal=   None    Shift=    0.000
 RMSDP=1.02D-04 MaxDP=3.68D-03 DE=-9.22D-03 OVMax= 1.07D-02

 Cycle   6  Pass 0  IDiag  1:
 RMSU=  4.67D-05    CP:  9.81D-01  1.32D+00  8.93D-01  5.98D-01  6.62D-01
 E= -2208.44695291827     Delta-E=       -0.000290554593 Rises=F Damp=F
 DIIS: error= 5.18D-04 at cycle   6 NSaved=   6.
 NSaved= 6 IEnMin= 6 EnMin= -2208.44695291827     IErMin= 6 ErrMin= 5.18D-04
 ErrMax= 5.18D-04 EMaxC= 1.00D-01 BMatC= 1.07D-04 BMatP= 3.53D-04
 IDIUse=3 WtCom= 9.95D-01 WtEn= 5.18D-03
 Coeff-Com:  0.140D-01-0.210D-01 0.597D-01 0.122D+00 0.386D+00 0.440D+00
 Coeff-En:   0.000D+00 0.000D+00 0.000D+00 0.000D+00 0.237D+00 0.763D+00
 Coeff:      0.139D-01-0.209D-01 0.594D-01 0.121D+00 0.385D+00 0.441D+00
 Gap=     0.112 Goal=   None    Shift=    0.000
 RMSDP=4.03D-05 MaxDP=1.60D-03 DE=-2.91D-04 OVMax= 4.27D-03

 Cycle   7  Pass 0  IDiag  1:
 RMSU=  1.14D-05    CP:  9.81D-01  1.32D+00  8.97D-01  5.87D-01  6.98D-01
                    CP:  4.75D-01
 E= -2208.44707262867     Delta-E=       -0.000119710398 Rises=F Damp=F
 DIIS: error= 6.89D-05 at cycle   7 NSaved=   7.
 NSaved= 7 IEnMin= 7 EnMin= -2208.44707262867     IErMin= 7 ErrMin= 6.89D-05
 ErrMax= 6.89D-05 EMaxC= 1.00D-01 BMatC= 1.70D-06 BMatP= 1.07D-04
 IDIUse=1 WtCom= 1.00D+00 WtEn= 0.00D+00
 Coeff-Com:  0.283D-02-0.460D-02 0.997D-02 0.220D-01 0.858D-01 0.159D+00
 Coeff-Com:  0.725D+00
 Coeff:      0.283D-02-0.460D-02 0.997D-02 0.220D-01 0.858D-01 0.159D+00
 Coeff:      0.725D+00
 Gap=     0.111 Goal=   None    Shift=    0.000
 RMSDP=8.14D-06 MaxDP=3.04D-04 DE=-1.20D-04 OVMax= 6.51D-04

 Initial convergence to 1.0D-05 achieved.  Increase integral accuracy.
 Cycle   8  Pass 1  IDiag  1:
 E= -2208.44682286117     Delta-E=        0.000249767497 Rises=F Damp=F
 DIIS: error= 5.55D-05 at cycle   1 NSaved=   1.
 NSaved= 1 IEnMin= 1 EnMin= -2208.44682286117     IErMin= 1 ErrMin= 5.55D-05
 ErrMax= 5.55D-05 EMaxC= 1.00D-01 BMatC= 1.22D-06 BMatP= 1.22D-06
 IDIUse=1 WtCom= 1.00D+00 WtEn= 0.00D+00
 Coeff-Com:  0.100D+01
 Coeff:      0.100D+01
 Gap=     0.111 Goal=   None    Shift=    0.000
 RMSDP=8.14D-06 MaxDP=3.04D-04 DE= 2.50D-04 OVMax= 7.84D-04

 Cycle   9  Pass 1  IDiag  1:
 RMSU=  1.47D-05    CP:  1.00D+00
 E= -2208.44681908146     Delta-E=        0.000003779711 Rises=F Damp=F
 DIIS: error= 1.40D-04 at cycle   2 NSaved=   2.
 NSaved= 2 IEnMin= 1 EnMin= -2208.44682286117     IErMin= 1 ErrMin= 5.55D-05
 ErrMax= 1.40D-04 EMaxC= 1.00D-01 BMatC= 4.57D-06 BMatP= 1.22D-06
 IDIUse=3 WtCom= 4.58D-01 WtEn= 5.42D-01
 Coeff-Com:  0.670D+00 0.330D+00
 Coeff-En:   0.755D+00 0.245D+00
 Coeff:      0.716D+00 0.284D+00
 Gap=     0.111 Goal=   None    Shift=    0.000
 RMSDP=7.02D-06 MaxDP=2.08D-04 DE= 3.78D-06 OVMax= 5.31D-04

 Cycle  10  Pass 1  IDiag  1:
 RMSU=  4.38D-06    CP:  1.00D+00  8.41D-01
 E= -2208.44682416346     Delta-E=       -0.000005081998 Rises=F Damp=F
 DIIS: error= 1.29D-05 at cycle   3 NSaved=   3.
 NSaved= 3 IEnMin= 3 EnMin= -2208.44682416346     IErMin= 3 ErrMin= 1.29D-05
 ErrMax= 1.29D-05 EMaxC= 1.00D-01 BMatC= 5.81D-08 BMatP= 1.22D-06
 IDIUse=1 WtCom= 1.00D+00 WtEn= 0.00D+00
 Coeff-Com:  0.198D+00 0.527D-01 0.749D+00
 Coeff:      0.198D+00 0.527D-01 0.749D+00
 Gap=     0.111 Goal=   None    Shift=    0.000
 RMSDP=1.49D-06 MaxDP=5.59D-05 DE=-5.08D-06 OVMax= 9.71D-05

 Cycle  11  Pass 1  IDiag  1:
 RMSU=  1.03D-06    CP:  1.00D+00  8.35D-01  1.05D+00
 E= -2208.44682417059     Delta-E=       -0.000000007132 Rises=F Damp=F
 DIIS: error= 1.36D-05 at cycle   4 NSaved=   4.
 NSaved= 4 IEnMin= 4 EnMin= -2208.44682417059     IErMin= 3 ErrMin= 1.29D-05
 ErrMax= 1.36D-05 EMaxC= 1.00D-01 BMatC= 5.19D-08 BMatP= 5.81D-08
 IDIUse=1 WtCom= 1.00D+00 WtEn= 0.00D+00
 Coeff-Com:  0.124D-01-0.244D-01 0.530D+00 0.482D+00
 Coeff:      0.124D-01-0.244D-01 0.530D+00 0.482D+00
 Gap=     0.111 Goal=   None    Shift=    0.000
 RMSDP=8.66D-07 MaxDP=4.04D-05 DE=-7.13D-09 OVMax= 7.16D-05

 Cycle  12  Pass 1  IDiag  1:
 RMSU=  2.52D-07    CP:  1.00D+00  8.38D-01  1.07D+00  4.73D-01
 E= -2208.44682422242     Delta-E=       -0.000000051832 Rises=F Damp=F
 DIIS: error= 3.11D-06 at cycle   5 NSaved=   5.
 NSaved= 5 IEnMin= 5 EnMin= -2208.44682422242     IErMin= 5 ErrMin= 3.11D-06
 ErrMax= 3.11D-06 EMaxC= 1.00D-01 BMatC= 3.65D-09 BMatP= 5.19D-08
 IDIUse=1 WtCom= 1.00D+00 WtEn= 0.00D+00
 Coeff-Com: -0.331D-02-0.180D-01 0.298D+00 0.309D+00 0.414D+00
 Coeff:     -0.331D-02-0.180D-01 0.298D+00 0.309D+00 0.414D+00
 Gap=     0.111 Goal=   None    Shift=    0.000
 RMSDP=2.18D-07 MaxDP=8.59D-06 DE=-5.18D-08 OVMax= 2.16D-05

 Cycle  13  Pass 1  IDiag  1:
 RMSU=  7.13D-08    CP:  1.00D+00  8.39D-01  1.07D+00  5.32D-01  5.19D-01
 E= -2208.44682422623     Delta-E=       -0.000000003808 Rises=F Damp=F
 DIIS: error= 4.12D-07 at cycle   6 NSaved=   6.
 NSaved= 6 IEnMin= 6 EnMin= -2208.44682422623     IErMin= 6 ErrMin= 4.12D-07
 ErrMax= 4.12D-07 EMaxC= 1.00D-01 BMatC= 8.93D-11 BMatP= 3.65D-09
 IDIUse=1 WtCom= 1.00D+00 WtEn= 0.00D+00
 Coeff-Com: -0.229D-02-0.647D-02 0.106D+00 0.114D+00 0.204D+00 0.585D+00
 Coeff:     -0.229D-02-0.647D-02 0.106D+00 0.114D+00 0.204D+00 0.585D+00
 Gap=     0.111 Goal=   None    Shift=    0.000
 RMSDP=4.31D-08 MaxDP=1.43D-06 DE=-3.81D-09 OVMax= 4.60D-06

 Cycle  14  Pass 1  IDiag  1:
 RMSU=  2.33D-08    CP:  1.00D+00  8.39D-01  1.07D+00  5.23D-01  5.32D-01
                    CP:  7.78D-01
 E= -2208.44682422633     Delta-E=       -0.000000000105 Rises=F Damp=F
 DIIS: error= 1.79D-07 at cycle   7 NSaved=   7.
 NSaved= 7 IEnMin= 7 EnMin= -2208.44682422633     IErMin= 7 ErrMin= 1.79D-07
 ErrMax= 1.79D-07 EMaxC= 1.00D-01 BMatC= 8.94D-12 BMatP= 8.93D-11
 IDIUse=1 WtCom= 1.00D+00 WtEn= 0.00D+00
 Coeff-Com: -0.922D-03-0.194D-02 0.330D-01 0.362D-01 0.763D-01 0.308D+00
 Coeff-Com:  0.550D+00
 Coeff:     -0.922D-03-0.194D-02 0.330D-01 0.362D-01 0.763D-01 0.308D+00
 Coeff:      0.550D+00
 Gap=     0.111 Goal=   None    Shift=    0.000
 RMSDP=1.66D-08 MaxDP=5.60D-07 DE=-1.05D-10 OVMax= 1.86D-06

 Cycle  15  Pass 1  IDiag  1:
 RMSU=  8.25D-09    CP:  1.00D+00  8.39D-01  1.07D+00  5.24D-01  5.38D-01
                    CP:  8.10D-01  6.71D-01
 E= -2208.44682422632     Delta-E=        0.000000000013 Rises=F Damp=F
 DIIS: error= 9.78D-08 at cycle   8 NSaved=   8.
 NSaved= 8 IEnMin= 7 EnMin= -2208.44682422633     IErMin= 8 ErrMin= 9.78D-08
 ErrMax= 9.78D-08 EMaxC= 1.00D-01 BMatC= 2.19D-12 BMatP= 8.94D-12
 IDIUse=1 WtCom= 1.00D+00 WtEn= 0.00D+00
 Coeff-Com: -0.253D-03-0.230D-03 0.482D-02 0.583D-02 0.182D-01 0.109D+00
 Coeff-Com:  0.359D+00 0.504D+00
 Coeff:     -0.253D-03-0.230D-03 0.482D-02 0.583D-02 0.182D-01 0.109D+00
 Coeff:      0.359D+00 0.504D+00
 Gap=     0.111 Goal=   None    Shift=    0.000
 RMSDP=6.52D-09 MaxDP=2.73D-07 DE= 1.27D-11 OVMax= 6.16D-07

 SCF Done:  E(RB3LYP) =  -2208.44682423     A.U. after   15 cycles
             Convg  =    0.6518D-08             -V/T =  2.0051
 KE= 2.197181795386D+03 PE=-8.801108701384D+03 EE= 2.599617408462D+03
 Leave Link  502 at Fri Apr  8 11:21:44 2011, MaxMem= 1507328000 cpu:     184.7
 (Enter /apps/gaussian/g09/g09/l801.exe)
 ExpMin= 1.17D-01 ExpMax= 2.19D+04 ExpMxC= 3.30D+03 IAcc=1 IRadAn=         1 AccDes= 0.00D+00
 HarFok:  IExCor=  205 AccDes= 0.00D+00 IRadAn=         1 IDoV=-2
 ScaDFX=  1.000000  1.000000  1.000000  1.000000
 Largest valence mixing into a core orbital is  8.65D-05
 Largest core mixing into a valence orbital is  3.19D-05
 Range of M.O.s used for correlation:    37   336
 NBasis=   336 NAE=    85 NBE=    85 NFC=    36 NFV=     0
 NROrb=    300 NOA=    49 NOB=    49 NVA=   251 NVB=   251
 Leave Link  801 at Fri Apr  8 11:21:44 2011, MaxMem= 1507328000 cpu:       1.5
 (Enter /apps/gaussian/g09/g09/l914.exe)
 RHF ground state
 MDV=  1507328000 DFT=T DoStab=F Mixed=T DoRPA=T DoScal=F NonHer=T
 Would need an additional  3408000000 words for in-memory AO integral storage.
 Making orbital integer symmetry assigments:
 Orbital symmetries:
       Occupied  (BU) (AG) (BU) (AG) (AG) (AG) (BU) (BU) (AG) (BU)
                 (BU) (AG) (AG) (BU) (AG) (BU) (BU) (AG) (BU) (AG)
                 (BU) (AG) (AG) (BU) (AG) (BU) (BU) (AG) (BU) (AG)
                 (BU) (AG) (BG) (AU) (AU) (BG) (AG) (BU) (AG) (BU)
                 (AG) (BU) (BU) (AG) (AG) (BU) (AG) (BU) (AG) (BU)
                 (AG) (BU) (AG) (BU) (BU) (AG) (AG) (BU) (AG) (BU)
                 (AG) (BU) (BU) (AU) (AG) (BU) (BG) (AG) (AG) (BU)
                 (AU) (AG) (BG) (BU) (AG) (BU) (AG) (AU) (BG) (BG)
                 (AU) (BG) (AU) (AU) (BG)
       Virtual   (AU) (BG) (AU) (AG) (BU) (BU) (AG) (BG) (AU) (BU)
                 (AG) (BG) (AG) (BU) (AU) (BG) (AG) (BU) (BU) (AG)
                 (BU) (AG) (BU) (AG) (BU) (AG) (BU) (AG) (BU) (BU)
                 (AG) (BU) (AG) (AG) (BU) (AG) (BU) (BU) (AG) (BU)
                 (AU) (AG) (BG) (AU) (BG) (AG) (BU) (AG) (BU) (AG)
                 (BU) (AG) (BU) (BU) (AG) (AG) (BU) (AG) (BU) (AU)
                 (BG) (BG) (AU) (AU) (BU) (AG) (BG) (BU) (AG) (BU)
                 (BG) (AG) (AG) (BU) (AU) (AU) (BG) (BG) (AU) (AU)
                 (BG) (BG) (AU) (AG) (BU) (AG) (BU) (AG) (AU) (BG)
                 (BU) (AU) (BG) (AG) (BU) (AU) (AG) (BU) (BU) (AG)
                 (AG) (BU) (BU) (AG) (BU) (AG) (BU) (AG) (BU) (BG)
                 (AG) (AU) (BU) (AG) (AG) (BU) (BG) (AG) (BU) (AG)
                 (BU) (AG) (BU) (AG) (BU) (AG) (BU) (AG) (BU) (BU)
                 (AG) (AG) (BU) (AG) (BU) (AG) (BU) (BU) (AU) (AG)
                 (BG) (BU) (AU) (AG) (AG) (BU) (BG) (AU) (BG) (AG)
                 (AU) (BG) (AU) (BU) (AG) (BU) (BG) (AU) (BG) (AG)
                 (BU) (BU) (AG) (AU) (BG) (AU) (AG) (BU) (BG) (AU)
                 (AG) (BU) (AG) (AG) (BU) (BU) (AG) (BU) (BG) (AG)
                 (AU) (BG) (BU) (AG) (BU) (BU) (AG) (AG) (BU) (AG)
                 (AU) (BU) (BG) (AG) (AU) (BU) (BG) (AU) (AG) (BU)
                 (AG) (BU) (BU) (AG) (BG) (AG) (AU) (BG) (BU) (AU)
                 (BG) (AU) (BG) (AG) (BU) (AG) (BU) (AG) (BU) (AG)
                 (BU) (AG) (BU) (BU) (AG) (AG) (BU) (BU) (AG) (AG)
                 (BU) (BU) (AG) (AG) (BU) (AG) (BU) (AG) (BU) (AG)
                 (BU) (AG) (BU) (AG) (BU) (AG) (BU) (AG) (BU) (AG)
                 (BU)
    12 initial guesses have been made.
 Convergence on wavefunction:    0.001000000000000
 Davidson Disk Diagonalization:  ConvIn= 1.00D-03 SkipCon=T Conv= 1.00D-03.
 Max sub-space:   200 roots to seek:    12 dimension of matrix:  24598
 Iteration     1 Dimension    12 NMult    12
 Cannot handle 2e integral symmetry, ISym2E=1.
 CISAX:  IP=  1 NPass=   1 NMax=    12.
 CISAX will form    12 AO SS matrices at one time.
 NMat=    12 NSing=    12.
 Symmetry not used in FoFDir.
 MinBra= 0 MaxBra= 2 Meth= 1.
 IRaf=       0 NMat=  12 IRICut=      30 DoRegI=T DoRafI=T ISym2E= 0 JSym2E=0.
 Cannot handle 2e integral symmetry, ISym2E=1.
 CISAX:  IP=  1 NPass=   1 NMax=    12.
 CISAX will form    12 AO SS matrices at one time.
 NMat=    12 NSing=    12.
 No map to state      3
 Excitation Energies [eV] at current iteration:
 Root      1 :     3.187704780022843
 Root      2 :     3.570129187069315
 Root      3 :     4.467808345386262
 Iteration     2 Dimension    18 NMult    18
 Cannot handle 2e integral symmetry, ISym2E=1.
 CISAX:  IP=  1 NPass=   1 NMax=     6.
 CISAX will form     6 AO SS matrices at one time.
 NMat=     6 NSing=     6.
 Cannot handle 2e integral symmetry, ISym2E=1.
 CISAX:  IP=  1 NPass=   1 NMax=     6.
 CISAX will form     6 AO SS matrices at one time.
 NMat=     6 NSing=     6.
 Root      1 not converged, maximum delta is    0.055537538192416
 Root      2 not converged, maximum delta is    0.048013423352032
 Root      3 not converged, maximum delta is    0.056725123959002
 Excitation Energies [eV] at current iteration:
 Root      1 :     2.871708279914863   Change is   -0.315996500107980
 Root      2 :     3.519034033121970   Change is   -0.051095153947345
 Root      3 :     4.408790509943040   Change is   -0.059017835443222
 Iteration     3 Dimension    24 NMult    24
 Cannot handle 2e integral symmetry, ISym2E=1.
 CISAX:  IP=  1 NPass=   1 NMax=     6.
 CISAX will form     6 AO SS matrices at one time.
 NMat=     6 NSing=     6.
 Cannot handle 2e integral symmetry, ISym2E=1.
 CISAX:  IP=  1 NPass=   1 NMax=     6.
 CISAX will form     6 AO SS matrices at one time.
 NMat=     6 NSing=     6.
 Root      1 not converged, maximum delta is    0.009217918655003
 Root      2 not converged, maximum delta is    0.009922521373342
 Root      3 not converged, maximum delta is    0.039136402726204
 Excitation Energies [eV] at current iteration:
 Root      1 :     2.846952057033662   Change is   -0.024756222881201
 Root      2 :     3.515136857442768   Change is   -0.003897175679202
 Root      3 :     4.400161739354054   Change is   -0.008628770588986
 Iteration     4 Dimension    30 NMult    30
 Cannot handle 2e integral symmetry, ISym2E=1.
 CISAX:  IP=  1 NPass=   1 NMax=     6.
 CISAX will form     6 AO SS matrices at one time.
 NMat=     6 NSing=     6.
 Cannot handle 2e integral symmetry, ISym2E=1.
 CISAX:  IP=  1 NPass=   1 NMax=     6.
 CISAX will form     6 AO SS matrices at one time.
 NMat=     6 NSing=     6.
 Root      1 not converged, maximum delta is    0.005508821534711
 Root      2 not converged, maximum delta is    0.005403569195065
 No map to state      3
 Excitation Energies [eV] at current iteration:
 Root      1 :     2.842900977150299   Change is   -0.004051079883363
 Root      2 :     3.514472776031413   Change is   -0.000664081411355
 Root      3 :     4.337165122237456
 Iteration     5 Dimension    36 NMult    36
 Cannot handle 2e integral symmetry, ISym2E=1.
 CISAX:  IP=  1 NPass=   1 NMax=     6.
 CISAX will form     6 AO SS matrices at one time.
 NMat=     6 NSing=     6.
 Cannot handle 2e integral symmetry, ISym2E=1.
 CISAX:  IP=  1 NPass=   1 NMax=     6.
 CISAX will form     6 AO SS matrices at one time.
 NMat=     6 NSing=     6.
 Root      1 has converged.
 Root      2 not converged, maximum delta is    0.003537096238848
 Root      3 not converged, maximum delta is    0.065194344979776
 Excitation Energies [eV] at current iteration:
 Root      1 :     2.842649192879658   Change is   -0.000251784270641
 Root      2 :     3.514275285488007   Change is   -0.000197490543406
 Root      3 :     3.999985913561250   Change is   -0.337179208676206
 Iteration     6 Dimension    40 NMult    40
 Cannot handle 2e integral symmetry, ISym2E=1.
 CISAX:  IP=  1 NPass=   1 NMax=     4.
 CISAX will form     4 AO SS matrices at one time.
 NMat=     4 NSing=     4.
 Cannot handle 2e integral symmetry, ISym2E=1.
 CISAX:  IP=  1 NPass=   1 NMax=     4.
 CISAX will form     4 AO SS matrices at one time.
 NMat=     4 NSing=     4.
 Root      1 has converged.
 Root      2 has converged.
 Root      3 not converged, maximum delta is    0.025969405004238
 Excitation Energies [eV] at current iteration:
 Root      1 :     2.842649192879656   Change is   -0.000000000000002
 Root      2 :     3.514251088391516   Change is   -0.000024197096492
 Root      3 :     3.965261248215180   Change is   -0.034724665346071
 Iteration     7 Dimension    42 NMult    42
 Cannot handle 2e integral symmetry, ISym2E=1.
 CISAX:  IP=  1 NPass=   1 NMax=     2.
 CISAX will form     2 AO SS matrices at one time.
 NMat=     2 NSing=     2.
 Cannot handle 2e integral symmetry, ISym2E=1.
 CISAX:  IP=  1 NPass=   1 NMax=     2.
 CISAX will form     2 AO SS matrices at one time.
 NMat=     2 NSing=     2.
 Root      1 has converged.
 Root      2 has converged.
 Root      3 not converged, maximum delta is    0.008683185822676
 Excitation Energies [eV] at current iteration:
 Root      1 :     2.842649192879659   Change is    0.000000000000003
 Root      2 :     3.514247966858032   Change is   -0.000003121533483
 Root      3 :     3.960561555942433   Change is   -0.004699692272747
 Iteration     8 Dimension    44 NMult    44
 Cannot handle 2e integral symmetry, ISym2E=1.
 CISAX:  IP=  1 NPass=   1 NMax=     2.
 CISAX will form     2 AO SS matrices at one time.
 NMat=     2 NSing=     2.
 Cannot handle 2e integral symmetry, ISym2E=1.
 CISAX:  IP=  1 NPass=   1 NMax=     2.
 CISAX will form     2 AO SS matrices at one time.
 NMat=     2 NSing=     2.
 Root      1 has converged.
 Root      2 has converged.
 Root      3 not converged, maximum delta is    0.001890974087558
 Excitation Energies [eV] at current iteration:
 Root      1 :     2.842649192879661   Change is    0.000000000000002
 Root      2 :     3.514247738627589   Change is   -0.000000228230444
 Root      3 :     3.960108080109031   Change is   -0.000453475833402
 Iteration     9 Dimension    46 NMult    46
 Cannot handle 2e integral symmetry, ISym2E=1.
 CISAX:  IP=  1 NPass=   1 NMax=     2.
 CISAX will form     2 AO SS matrices at one time.
 NMat=     2 NSing=     2.
 Cannot handle 2e integral symmetry, ISym2E=1.
 CISAX:  IP=  1 NPass=   1 NMax=     2.
 CISAX will form     2 AO SS matrices at one time.
 NMat=     2 NSing=     2.
 Root      1 has converged.
 Root      2 has converged.
 Root      3 has converged.
 Excitation Energies [eV] at current iteration:
 Root      1 :     2.842649192879648   Change is   -0.000000000000013
 Root      2 :     3.514247634610950   Change is   -0.000000104016639
 Root      3 :     3.960050933310524   Change is   -0.000057146798507
 Convergence achieved on expansion vectors.
 ***********************************************************************
 Excited states from <AA,BB:AA,BB> singles matrix:
 ***********************************************************************
 
 1PDM for each excited state written to RWF  633
 Ground to excited state transition electric dipole moments (Au):
       state          X           Y           Z        Dip. S.      Osc.
         1        -0.0030     -4.1799      0.0000     17.4716      1.2168
         2         0.0000      0.0000      0.0000      0.0000      0.0000
         3         0.0000      0.0000      0.0000      0.0000      0.0000
 Ground to excited state transition velocity dipole moments (Au):
       state          X           Y           Z        Dip. S.      Osc.
         1        -0.0005      0.4371      0.0000      0.1911      1.2194
         2         0.0000      0.0000      0.0000      0.0000      0.0000
         3         0.0000      0.0000      0.0000      0.0000      0.0000
 Ground to excited state transition magnetic dipole moments (Au):
       state          X           Y           Z
         1         0.0000      0.0000      0.0000
         2         0.0000      0.0000      0.0572
         3         0.0000      0.0000      0.5240
 <0|del|b> * <b|rxdel|0> + <0|del|b> * <b|delr+rdel|0>
 Rotatory Strengths (R) in cgs (10**-40 erg-esu-cm/Gauss)
       state          XX          YY          ZZ    R(velocity)
         1         0.0000      0.0000      0.0000      0.0000
 Total R(velocity) tensor for State=          1
                 1             2             3 
      1   0.000000D+00  0.000000D+00  0.000000D+00
      2   0.000000D+00  0.000000D+00  0.000000D+00
      3   0.000000D+00  0.000000D+00  0.000000D+00
 R(velocity) tensor in inp. orien. for State=          1
                 1             2             3 
      1   0.000000D+00  0.000000D+00  0.000000D+00
      2   0.000000D+00  0.000000D+00  0.000000D+00
      3   0.000000D+00  0.000000D+00  0.000000D+00
         2         0.0000      0.0000      0.0000      0.0000
 Total R(velocity) tensor for State=          2
                 1             2             3 
      1   0.000000D+00  0.000000D+00  0.000000D+00
      2   0.000000D+00  0.000000D+00  0.000000D+00
      3   0.000000D+00  0.000000D+00  0.000000D+00
 R(velocity) tensor in inp. orien. for State=          2
                 1             2             3 
      1   0.000000D+00  0.000000D+00  0.000000D+00
      2   0.000000D+00  0.000000D+00  0.000000D+00
      3   0.000000D+00  0.000000D+00  0.000000D+00
         3         0.0000      0.0000      0.0000      0.0000
 Total R(velocity) tensor for State=          3
                 1             2             3 
      1   0.000000D+00  0.000000D+00  0.000000D+00
      2   0.000000D+00  0.000000D+00  0.000000D+00
      3   0.000000D+00  0.000000D+00  0.000000D+00
 R(velocity) tensor in inp. orien. for State=          3
                 1             2             3 
      1   0.000000D+00  0.000000D+00  0.000000D+00
      2   0.000000D+00  0.000000D+00  0.000000D+00
      3   0.000000D+00  0.000000D+00  0.000000D+00
 1/2[<0|r|b>*<b|rxdel|0> + (<0|rxdel|b>*<b|r|0>)*]
 Rotatory Strengths (R) in cgs (10**-40 erg-esu-cm/Gauss)
       state          XX          YY          ZZ     R(length)     R(au)
         1         0.0000      0.0000      0.0000      0.0000      0.0000
         2         0.0000      0.0000      0.0000      0.0000      0.0000
         3         0.0000      0.0000      0.0000      0.0000      0.0000
  1/2[<0|del|b>*<b|r|0> + (<0|r|b>*<b|del|0>)*] (Au)
       state          X           Y           Z        Dip. S.   Osc.(frdel)
         1         0.0000     -1.8272      0.0000      1.8272      1.2181
         2         0.0000      0.0000      0.0000      0.0000      0.0000
         3         0.0000      0.0000      0.0000      0.0000      0.0000
 Ground to excited state transition densities written to RWF  633

 Excitation energies and oscillator strengths:
 
 Excited State   1:      Singlet-BU     2.8426 eV  436.16 nm  f=1.2168  <S**2>=0.000
      85 -> 86         0.70831
 This state for optimization and/or second-order correction.
 Total Energy, E(TD-HF/TD-KS) =  -2208.34235879    
 Copying the excited state density for this state as the 1-particle RhoCI density.
 
 Excited State   2:      Singlet-AG     3.5142 eV  352.80 nm  f=0.0000  <S**2>=0.000
      84 -> 86        -0.43604
      85 -> 87         0.54758
 
 Excited State   3:      Singlet-AG     3.9601 eV  313.09 nm  f=0.0000  <S**2>=0.000
      84 -> 86         0.54927
      85 -> 87         0.42425
 SavETr:  write IOETrn=   770 NScale= 10 NData=  16 NLR=1 LETran=      64.
 Leave Link  914 at Fri Apr  8 11:27:15 2011, MaxMem= 1507328000 cpu:    2643.7
 (Enter /apps/gaussian/g09/g09/l601.exe)
 Copying SCF densities to generalized density rwf, IOpCl= 0 IROHF=0.

 **********************************************************************

            Population analysis using the SCF density.

 **********************************************************************

 Orbital symmetries:
       Occupied  (BU) (AG) (BU) (AG) (AG) (AG) (BU) (BU) (AG) (BU)
                 (BU) (AG) (AG) (BU) (AG) (BU) (BU) (AG) (BU) (AG)
                 (BU) (AG) (AG) (BU) (AG) (BU) (BU) (AG) (BU) (AG)
                 (BU) (AG) (BG) (AU) (AU) (BG) (AG) (BU) (AG) (BU)
                 (AG) (BU) (BU) (AG) (AG) (BU) (AG) (BU) (AG) (BU)
                 (AG) (BU) (AG) (BU) (BU) (AG) (AG) (BU) (AG) (BU)
                 (AG) (BU) (BU) (AU) (AG) (BU) (BG) (AG) (AG) (BU)
                 (AU) (AG) (BG) (BU) (AG) (BU) (AG) (AU) (BG) (BG)
                 (AU) (BG) (AU) (AU) (BG)
       Virtual   (AU) (BG) (AU) (AG) (BU) (BU) (AG) (BG) (AU) (BU)
                 (AG) (BG) (AG) (BU) (AU) (BG) (AG) (BU) (BU) (AG)
                 (BU) (AG) (BU) (AG) (BU) (AG) (BU) (AG) (BU) (BU)
                 (AG) (BU) (AG) (AG) (BU) (AG) (BU) (BU) (AG) (BU)
                 (AU) (AG) (BG) (AU) (BG) (AG) (BU) (AG) (BU) (AG)
                 (BU) (AG) (BU) (BU) (AG) (AG) (BU) (AG) (BU) (AU)
                 (BG) (BG) (AU) (AU) (BU) (AG) (BG) (BU) (AG) (BU)
                 (BG) (AG) (AG) (BU) (AU) (AU) (BG) (BG) (AU) (AU)
                 (BG) (BG) (AU) (AG) (BU) (AG) (BU) (AG) (AU) (BG)
                 (BU) (AU) (BG) (AG) (BU) (AU) (AG) (BU) (BU) (AG)
                 (AG) (BU) (BU) (AG) (BU) (AG) (BU) (AG) (BU) (BG)
                 (AG) (AU) (BU) (AG) (AG) (BU) (BG) (AG) (BU) (AG)
                 (BU) (AG) (BU) (AG) (BU) (AG) (BU) (AG) (BU) (BU)
                 (AG) (AG) (BU) (AG) (BU) (AG) (BU) (BU) (AU) (AG)
                 (BG) (BU) (AU) (AG) (AG) (BU) (BG) (AU) (BG) (AG)
                 (AU) (BG) (AU) (BU) (AG) (BU) (BG) (AU) (BG) (AG)
                 (BU) (BU) (AG) (AU) (BG) (AU) (AG) (BU) (BG) (AU)
                 (AG) (BU) (AG) (AG) (BU) (BU) (AG) (BU) (BG) (AG)
                 (AU) (BG) (BU) (AG) (BU) (BU) (AG) (AG) (BU) (AG)
                 (AU) (BU) (BG) (AG) (AU) (BU) (BG) (AU) (AG) (BU)
                 (AG) (BU) (BU) (AG) (BG) (AG) (AU) (BG) (BU) (AU)
                 (BG) (AU) (BG) (AG) (BU) (AG) (BU) (AG) (BU) (AG)
                 (BU) (AG) (BU) (BU) (AG) (AG) (BU) (BU) (AG) (AG)
                 (BU) (BU) (AG) (AG) (BU) (AG) (BU) (AG) (BU) (AG)
                 (BU) (AG) (BU) (AG) (BU) (AG) (BU) (AG) (BU) (AG)
                 (BU)
 The electronic state is 1-AG.
 Alpha  occ. eigenvalues --  -88.91091 -88.91091 -88.91090 -88.91090 -10.23449
 Alpha  occ. eigenvalues --  -10.23430 -10.23430 -10.23411 -10.23251 -10.23251
 Alpha  occ. eigenvalues --  -10.21891 -10.21891 -10.19974 -10.19974 -10.19919
 Alpha  occ. eigenvalues --  -10.19919 -10.19807 -10.19807 -10.19733 -10.19733
 Alpha  occ. eigenvalues --   -7.97207  -7.97207  -7.97198  -7.97196  -5.93632
 Alpha  occ. eigenvalues --   -5.93630  -5.93623  -5.93623  -5.93262  -5.93261
 Alpha  occ. eigenvalues --   -5.93252  -5.93252  -5.92888  -5.92888  -5.92843
 Alpha  occ. eigenvalues --   -5.92843  -0.90201  -0.89231  -0.87896  -0.86696
 Alpha  occ. eigenvalues --   -0.78788  -0.76091  -0.74595  -0.74470  -0.73330
 Alpha  occ. eigenvalues --   -0.73317  -0.71299  -0.68613  -0.61811  -0.60223
 Alpha  occ. eigenvalues --   -0.58181  -0.56408  -0.55124  -0.53365  -0.52910
 Alpha  occ. eigenvalues --   -0.52892  -0.52501  -0.50823  -0.47156  -0.45030
 Alpha  occ. eigenvalues --   -0.42005  -0.41602  -0.41291  -0.41179  -0.41106
 Alpha  occ. eigenvalues --   -0.39969  -0.39931  -0.39816  -0.38481  -0.38277
 Alpha  occ. eigenvalues --   -0.38067  -0.37081  -0.36044  -0.35735  -0.34574
 Alpha  occ. eigenvalues --   -0.33848  -0.33435  -0.30132  -0.26529  -0.26107
 Alpha  occ. eigenvalues --   -0.25855  -0.25374  -0.25113  -0.22094  -0.18238
 Alpha virt. eigenvalues --   -0.07090  -0.03604  -0.00019   0.01652   0.01745
 Alpha virt. eigenvalues --    0.02323   0.02617   0.03429   0.05699   0.05901
 Alpha virt. eigenvalues --    0.08361   0.08537   0.09004   0.09217   0.09912
 Alpha virt. eigenvalues --    0.10322   0.11107   0.11688   0.13385   0.15511
 Alpha virt. eigenvalues --    0.16423   0.16828   0.17835   0.18330   0.19774
 Alpha virt. eigenvalues --    0.20546   0.20936   0.22850   0.24666   0.25262
 Alpha virt. eigenvalues --    0.25304   0.25468   0.26520   0.28205   0.29075
 Alpha virt. eigenvalues --    0.30009   0.30186   0.33697   0.33912   0.35447
 Alpha virt. eigenvalues --    0.36016   0.36027   0.36106   0.36381   0.36395
 Alpha virt. eigenvalues --    0.37409   0.38760   0.39784   0.41507   0.42415
 Alpha virt. eigenvalues --    0.44284   0.45710   0.46458   0.47413   0.47728
 Alpha virt. eigenvalues --    0.48592   0.48626   0.50135   0.50975   0.53265
 Alpha virt. eigenvalues --    0.53589   0.54407   0.54897   0.55730   0.56482
 Alpha virt. eigenvalues --    0.57604   0.57995   0.58500   0.58572   0.59995
 Alpha virt. eigenvalues --    0.60080   0.60582   0.60895   0.60938   0.61282
 Alpha virt. eigenvalues --    0.62547   0.63181   0.64066   0.65294   0.66949
 Alpha virt. eigenvalues --    0.67007   0.68515   0.68857   0.70222   0.73000
 Alpha virt. eigenvalues --    0.76267   0.76915   0.78635   0.78901   0.78905
 Alpha virt. eigenvalues --    0.79042   0.79440   0.80458   0.80534   0.80798
 Alpha virt. eigenvalues --    0.81545   0.82197   0.82744   0.83326   0.83620
 Alpha virt. eigenvalues --    0.83770   0.84282   0.84762   0.86116   0.88347
 Alpha virt. eigenvalues --    0.88514   0.88987   0.90588   0.90880   0.91115
 Alpha virt. eigenvalues --    0.91538   0.93559   0.93652   0.94480   0.95559
 Alpha virt. eigenvalues --    0.95913   0.95930   0.99251   1.00291   1.01223
 Alpha virt. eigenvalues --    1.01614   1.03304   1.03887   1.04156   1.04744
 Alpha virt. eigenvalues --    1.05414   1.05695   1.06590   1.09697   1.10062
 Alpha virt. eigenvalues --    1.10071   1.12571   1.15618   1.16820   1.17716
 Alpha virt. eigenvalues --    1.19628   1.21793   1.26948   1.27847   1.28745
 Alpha virt. eigenvalues --    1.30184   1.32155   1.33137   1.35952   1.36780
 Alpha virt. eigenvalues --    1.37120   1.37371   1.38550   1.39705   1.39773
 Alpha virt. eigenvalues --    1.40139   1.45110   1.45126   1.46695   1.49363
 Alpha virt. eigenvalues --    1.50004   1.52790   1.53660   1.53896   1.54456
 Alpha virt. eigenvalues --    1.54467   1.65958   1.68399   1.70722   1.71093
 Alpha virt. eigenvalues --    1.73226   1.75069   1.78855   1.79398   1.79869
 Alpha virt. eigenvalues --    1.82324   1.83537   1.83749   1.87905   1.89894
 Alpha virt. eigenvalues --    1.90990   1.91566   1.93850   1.95100   1.95757
 Alpha virt. eigenvalues --    1.96979   1.97015   1.97366   1.99593   2.08332
 Alpha virt. eigenvalues --    2.10385   2.11095   2.12930   2.15091   2.17258
 Alpha virt. eigenvalues --    2.20817   2.21323   2.21329   2.21749   2.22999
 Alpha virt. eigenvalues --    2.25262   2.25369   2.25823   2.26960   2.27292
 Alpha virt. eigenvalues --    2.29437   2.31189   2.32571   2.34478   2.36543
 Alpha virt. eigenvalues --    2.38184   2.39314   2.41908   2.47266   2.48083
 Alpha virt. eigenvalues --    2.48208   2.49872   2.50928   2.54170   2.56108
 Alpha virt. eigenvalues --    2.62604   2.63012   2.71305   2.72099   2.78375
 Alpha virt. eigenvalues --    2.81950   2.90116   2.90982   2.93028   2.95906
 Alpha virt. eigenvalues --    3.01255   3.01507   3.05640   3.07235   3.12360
 Alpha virt. eigenvalues --    3.18468   3.94113   3.94835   3.95792   3.95845
 Alpha virt. eigenvalues --    4.08083   4.08924   4.10657   4.10936   4.11333
 Alpha virt. eigenvalues --    4.11569   4.13113   4.16864   4.25214   4.30348
 Alpha virt. eigenvalues --    4.36165   4.41119   4.42708   4.55269   4.56147
 Alpha virt. eigenvalues --    4.56173
          Condensed to atoms (all electrons):
              1          2          3          4          5          6
     1  C    5.140913   0.544588  -0.026195  -0.052134   0.323768  -0.049306
     2  C    0.544588   4.936639   0.496444  -0.051777  -0.093867   0.362697
     3  C   -0.026195   0.496444   4.819624   0.583832  -0.080310  -0.042076
     4  C   -0.052134  -0.051777   0.583832   5.229610   0.314473   0.006286
     5  S    0.323768  -0.093867  -0.080310   0.314473  15.350969   0.006862
     6  H   -0.049306   0.362697  -0.042076   0.006286   0.006862   0.567810
     7  H    0.004826  -0.036965   0.361516  -0.049106   0.006882  -0.002349
     8  H    0.001903   0.004753  -0.022182   0.357074  -0.035615  -0.000108
     9  C    0.358069  -0.023409   0.006862   0.004055  -0.063951  -0.009270
    10  C   -0.028064   0.005752  -0.000227   0.000085  -0.002685   0.000016
    11  S   -0.062990  -0.002433   0.000146  -0.000024   0.003516   0.006232
    12  C    0.008069  -0.000240   0.000002  -0.000003   0.000157   0.000010
    13  H   -0.008713   0.000038   0.000007  -0.000009   0.006163  -0.000007
    14  C    0.002330   0.000108  -0.000003   0.000001   0.000012   0.000001
    15  H   -0.000098   0.000000   0.000000   0.000000   0.000001   0.000000
    16  C   -0.000141   0.000001   0.000000   0.000000   0.000002   0.000000
    17  C    0.000002   0.000000   0.000000   0.000000   0.000000   0.000000
    18  S    0.000002   0.000000   0.000000   0.000000   0.000000   0.000000
    19  C    0.000000   0.000000   0.000000   0.000000   0.000000   0.000000
    20  H    0.000000   0.000000   0.000000   0.000000   0.000000   0.000000
    21  C    0.000000   0.000000   0.000000   0.000000   0.000000   0.000000
    22  H    0.000000   0.000000   0.000000   0.000000   0.000000   0.000000
    23  C    0.000000   0.000000   0.000000   0.000000   0.000000   0.000000
    24  C    0.000000   0.000000   0.000000   0.000000   0.000000   0.000000
    25  S    0.000000   0.000000   0.000000   0.000000   0.000000   0.000000
    26  C    0.000000   0.000000   0.000000   0.000000   0.000000   0.000000
    27  H    0.000000   0.000000   0.000000   0.000000   0.000000   0.000000
    28  C    0.000000   0.000000   0.000000   0.000000   0.000000   0.000000
    29  H    0.000000   0.000000   0.000000   0.000000   0.000000   0.000000
    30  H    0.000000   0.000000   0.000000   0.000000   0.000000   0.000000
              7          8          9         10         11         12
     1  C    0.004826   0.001903   0.358069  -0.028064  -0.062990   0.008069
     2  C   -0.036965   0.004753  -0.023409   0.005752  -0.002433  -0.000240
     3  C    0.361516  -0.022182   0.006862  -0.000227   0.000146   0.000002
     4  C   -0.049106   0.357074   0.004055   0.000085  -0.000024  -0.000003
     5  S    0.006882  -0.035615  -0.063951  -0.002685   0.003516   0.000157
     6  H   -0.002349  -0.000108  -0.009270   0.000016   0.006232   0.000010
     7  H    0.573158  -0.003293  -0.000128   0.000000   0.000003   0.000000
     8  H   -0.003293   0.522410  -0.000106   0.000001   0.000002   0.000000
     9  C   -0.000128  -0.000106   5.113082   0.541431   0.317095  -0.031669
    10  C    0.000000   0.000001   0.541431   4.964076  -0.090600   0.458367
    11  S    0.000003   0.000002   0.317095  -0.090600  15.379055  -0.090370
    12  C    0.000000   0.000000  -0.031669   0.458367  -0.090370   4.964563
    13  H    0.000000   0.000000  -0.048595   0.361922   0.006641  -0.037840
    14  C    0.000000   0.000000  -0.038825  -0.030697   0.315676   0.538594
    15  H    0.000000   0.000000   0.004909  -0.037773   0.006612   0.361573
    16  C    0.000000   0.000000   0.002551   0.008124  -0.062865  -0.026470
    17  C    0.000000   0.000000   0.000096  -0.000224  -0.002250   0.005547
    18  S    0.000000   0.000000  -0.000002   0.000182   0.003460  -0.002250
    19  C    0.000000   0.000000  -0.000003   0.000002   0.000182  -0.000224
    20  H    0.000000   0.000000  -0.000001   0.000011   0.006191   0.000007
    21  C    0.000000   0.000000   0.000001  -0.000003  -0.000002   0.000096
    22  H    0.000000   0.000000   0.000000   0.000000   0.000002   0.000000
    23  C    0.000000   0.000000   0.000000   0.000000   0.000002   0.000002
    24  C    0.000000   0.000000   0.000000   0.000000   0.000000   0.000000
    25  S    0.000000   0.000000   0.000000   0.000000   0.000000   0.000000
    26  C    0.000000   0.000000   0.000000   0.000000   0.000000   0.000000
    27  H    0.000000   0.000000   0.000000   0.000000   0.000000   0.000000
    28  C    0.000000   0.000000   0.000000   0.000000   0.000000   0.000000
    29  H    0.000000   0.000000   0.000000   0.000000   0.000000   0.000000
    30  H    0.000000   0.000000   0.000000   0.000000   0.000000   0.000000
             13         14         15         16         17         18
     1  C   -0.008713   0.002330  -0.000098  -0.000141   0.000002   0.000002
     2  C    0.000038   0.000108   0.000000   0.000001   0.000000   0.000000
     3  C    0.000007  -0.000003   0.000000   0.000000   0.000000   0.000000
     4  C   -0.000009   0.000001   0.000000   0.000000   0.000000   0.000000
     5  S    0.006163   0.000012   0.000001   0.000002   0.000000   0.000000
     6  H   -0.000007   0.000001   0.000000   0.000000   0.000000   0.000000
     7  H    0.000000   0.000000   0.000000   0.000000   0.000000   0.000000
     8  H    0.000000   0.000000   0.000000   0.000000   0.000000   0.000000
     9  C   -0.048595  -0.038825   0.004909   0.002551   0.000096  -0.000002
    10  C    0.361922  -0.030697  -0.037773   0.008124  -0.000224   0.000182
    11  S    0.006641   0.315676   0.006612  -0.062865  -0.002250   0.003460
    12  C   -0.037840   0.538594   0.361573  -0.026470   0.005547  -0.002250
    13  H    0.562515   0.004916  -0.002158  -0.000097   0.000000   0.000002
    14  C    0.004916   5.135151  -0.048061   0.354634  -0.026470  -0.062865
    15  H   -0.002158  -0.048061   0.562231  -0.008895   0.000007   0.006191
    16  C   -0.000097   0.354634  -0.008895   5.135151   0.538594   0.315676
    17  C    0.000000  -0.026470   0.000007   0.538594   4.964563  -0.090370
    18  S    0.000002  -0.062865   0.006191   0.315676  -0.090370  15.379055
    19  C    0.000000   0.008124   0.000011  -0.030697   0.458367  -0.090600
    20  H    0.000000  -0.008895  -0.000008  -0.048061   0.361573   0.006612
    21  C    0.000000   0.002551  -0.000001  -0.038825  -0.031669   0.317095
    22  H    0.000000  -0.000097   0.000000   0.004916  -0.037840   0.006641
    23  C    0.000000  -0.000141   0.000000   0.002330   0.008069  -0.062990
    24  C    0.000000   0.000001   0.000000   0.000108  -0.000240  -0.002433
    25  S    0.000000   0.000002   0.000000   0.000012   0.000157   0.003516
    26  C    0.000000   0.000000   0.000000  -0.000003   0.000002   0.000146
    27  H    0.000000   0.000000   0.000000   0.000001   0.000010   0.006232
    28  C    0.000000   0.000000   0.000000   0.000001  -0.000003  -0.000024
    29  H    0.000000   0.000000   0.000000   0.000000   0.000000   0.000003
    30  H    0.000000   0.000000   0.000000   0.000000   0.000000   0.000002
             19         20         21         22         23         24
     1  C    0.000000   0.000000   0.000000   0.000000   0.000000   0.000000
     2  C    0.000000   0.000000   0.000000   0.000000   0.000000   0.000000
     3  C    0.000000   0.000000   0.000000   0.000000   0.000000   0.000000
     4  C    0.000000   0.000000   0.000000   0.000000   0.000000   0.000000
     5  S    0.000000   0.000000   0.000000   0.000000   0.000000   0.000000
     6  H    0.000000   0.000000   0.000000   0.000000   0.000000   0.000000
     7  H    0.000000   0.000000   0.000000   0.000000   0.000000   0.000000
     8  H    0.000000   0.000000   0.000000   0.000000   0.000000   0.000000
     9  C   -0.000003  -0.000001   0.000001   0.000000   0.000000   0.000000
    10  C    0.000002   0.000011  -0.000003   0.000000   0.000000   0.000000
    11  S    0.000182   0.006191  -0.000002   0.000002   0.000002   0.000000
    12  C   -0.000224   0.000007   0.000096   0.000000   0.000002   0.000000
    13  H    0.000000   0.000000   0.000000   0.000000   0.000000   0.000000
    14  C    0.008124  -0.008895   0.002551  -0.000097  -0.000141   0.000001
    15  H    0.000011  -0.000008  -0.000001   0.000000   0.000000   0.000000
    16  C   -0.030697  -0.048061  -0.038825   0.004916   0.002330   0.000108
    17  C    0.458367   0.361573  -0.031669  -0.037840   0.008069  -0.000240
    18  S   -0.090600   0.006612   0.317095   0.006641  -0.062990  -0.002433
    19  C    4.964076  -0.037773   0.541431   0.361922  -0.028064   0.005752
    20  H   -0.037773   0.562231   0.004909  -0.002158  -0.000098   0.000000
    21  C    0.541431   0.004909   5.113082  -0.048595   0.358069  -0.023409
    22  H    0.361922  -0.002158  -0.048595   0.562515  -0.008713   0.000038
    23  C   -0.028064  -0.000098   0.358069  -0.008713   5.140913   0.544588
    24  C    0.005752   0.000000  -0.023409   0.000038   0.544588   4.936639
    25  S   -0.002685   0.000001  -0.063951   0.006163   0.323768  -0.093867
    26  C   -0.000227   0.000000   0.006862   0.000007  -0.026195   0.496444
    27  H    0.000016   0.000000  -0.009270  -0.000007  -0.049306   0.362697
    28  C    0.000085   0.000000   0.004055  -0.000009  -0.052134  -0.051777
    29  H    0.000000   0.000000  -0.000128   0.000000   0.004826  -0.036965
    30  H    0.000001   0.000000  -0.000106   0.000000   0.001903   0.004753
             25         26         27         28         29         30
     1  C    0.000000   0.000000   0.000000   0.000000   0.000000   0.000000
     2  C    0.000000   0.000000   0.000000   0.000000   0.000000   0.000000
     3  C    0.000000   0.000000   0.000000   0.000000   0.000000   0.000000
     4  C    0.000000   0.000000   0.000000   0.000000   0.000000   0.000000
     5  S    0.000000   0.000000   0.000000   0.000000   0.000000   0.000000
     6  H    0.000000   0.000000   0.000000   0.000000   0.000000   0.000000
     7  H    0.000000   0.000000   0.000000   0.000000   0.000000   0.000000
     8  H    0.000000   0.000000   0.000000   0.000000   0.000000   0.000000
     9  C    0.000000   0.000000   0.000000   0.000000   0.000000   0.000000
    10  C    0.000000   0.000000   0.000000   0.000000   0.000000   0.000000
    11  S    0.000000   0.000000   0.000000   0.000000   0.000000   0.000000
    12  C    0.000000   0.000000   0.000000   0.000000   0.000000   0.000000
    13  H    0.000000   0.000000   0.000000   0.000000   0.000000   0.000000
    14  C    0.000002   0.000000   0.000000   0.000000   0.000000   0.000000
    15  H    0.000000   0.000000   0.000000   0.000000   0.000000   0.000000
    16  C    0.000012  -0.000003   0.000001   0.000001   0.000000   0.000000
    17  C    0.000157   0.000002   0.000010  -0.000003   0.000000   0.000000
    18  S    0.003516   0.000146   0.006232  -0.000024   0.000003   0.000002
    19  C   -0.002685  -0.000227   0.000016   0.000085   0.000000   0.000001
    20  H    0.000001   0.000000   0.000000   0.000000   0.000000   0.000000
    21  C   -0.063951   0.006862  -0.009270   0.004055  -0.000128  -0.000106
    22  H    0.006163   0.000007  -0.000007  -0.000009   0.000000   0.000000
    23  C    0.323768  -0.026195  -0.049306  -0.052134   0.004826   0.001903
    24  C   -0.093867   0.496444   0.362697  -0.051777  -0.036965   0.004753
    25  S   15.350969  -0.080310   0.006862   0.314473   0.006882  -0.035615
    26  C   -0.080310   4.819624  -0.042076   0.583832   0.361516  -0.022182
    27  H    0.006862  -0.042076   0.567810   0.006286  -0.002349  -0.000108
    28  C    0.314473   0.583832   0.006286   5.229610  -0.049106   0.357074
    29  H    0.006882   0.361516  -0.002349  -0.049106   0.573158  -0.003293
    30  H   -0.035615  -0.022182  -0.000108   0.357074  -0.003293   0.522410
 Mulliken atomic charges:
              1
     1  C   -0.156831
     2  C   -0.142332
     3  C   -0.097439
     4  C   -0.342363
     5  S    0.263621
     6  H    0.153202
     7  H    0.145456
     8  H    0.175160
     9  C   -0.132193
    10  C   -0.149698
    11  S    0.266719
    12  C   -0.147924
    13  H    0.155215
    14  C   -0.146049
    15  H    0.155457
    16  C   -0.146049
    17  C   -0.147924
    18  S    0.266719
    19  C   -0.149698
    20  H    0.155457
    21  C   -0.132193
    22  H    0.155215
    23  C   -0.156831
    24  C   -0.142332
    25  S    0.263621
    26  C   -0.097439
    27  H    0.153202
    28  C   -0.342363
    29  H    0.145456
    30  H    0.175160
 Sum of Mulliken atomic charges =   0.00000
 Mulliken charges with hydrogens summed into heavy atoms:
              1
     1  C   -0.156831
     2  C    0.010870
     3  C    0.048016
     4  C   -0.167203
     5  S    0.263621
     9  C   -0.132193
    10  C    0.005516
    11  S    0.266719
    12  C    0.007534
    14  C   -0.146049
    16  C   -0.146049
    17  C    0.007534
    18  S    0.266719
    19  C    0.005516
    21  C   -0.132193
    23  C   -0.156831
    24  C    0.010870
    25  S    0.263621
    26  C    0.048016
    28  C   -0.167203
 Sum of Mulliken charges with hydrogens summed into heavy atoms =   0.00000
 Electronic spatial extent (au):  <R**2>=          13501.5534
 Charge=              0.0000 electrons
 Dipole moment (field-independent basis, Debye):
    X=              0.0000    Y=              0.0000    Z=              0.0000  Tot=              0.0000
 Quadrupole moment (field-independent basis, Debye-Ang):
   XX=           -130.5276   YY=           -112.8280   ZZ=           -151.1240
   XY=             -4.7912   XZ=              0.0000   YZ=              0.0000
 Traceless Quadrupole moment (field-independent basis, Debye-Ang):
   XX=              0.9656   YY=             18.6652   ZZ=            -19.6308
   XY=             -4.7912   XZ=              0.0000   YZ=              0.0000
 Octapole moment (field-independent basis, Debye-Ang**2):
  XXX=              0.0000  YYY=              0.0000  ZZZ=              0.0000  XYY=              0.0000
  XXY=              0.0000  XXZ=              0.0000  XZZ=              0.0000  YZZ=              0.0000
  YYZ=              0.0000  XYZ=              0.0000
 Hexadecapole moment (field-independent basis, Debye-Ang**3):
 XXXX=          -1103.4377 YYYY=         -14351.8164 ZZZZ=           -171.8935 XXXY=           -149.0418
 XXXZ=              0.0000 YYYX=           -296.5292 YYYZ=              0.0000 ZZZX=              0.0000
 ZZZY=              0.0000 XXYY=          -2875.1279 XXZZ=           -243.9076 YYZZ=          -3162.5245
 XXYZ=              0.0000 YYXZ=              0.0000 ZZXY=            -28.1327
 N-N= 1.795862673310D+03 E-N=-8.801108705194D+03  KE= 2.197181795386D+03
 Symmetry AG   KE= 1.014701598835D+03
 Symmetry BG   KE= 8.596444914417D+01
 Symmetry AU   KE= 8.560968016599D+01
 Symmetry BU   KE= 1.010906067241D+03
 Leave Link  601 at Fri Apr  8 11:27:16 2011, MaxMem= 1507328000 cpu:       3.0
 (Enter /apps/gaussian/g09/g09/l9999.exe)
 1\1\GINC-CX1-15-12-1\SP\RTD-B3LYP-FC\6-31G(d)\C16H10S4\SPF310\08-Apr-2
 011\0\\#p sp B3LYP/6-31g* td(singlets,nstates=3) geom=allcheck\\Title 
 Card Required\\0,1\C,0,-4.6261701945,0.1177775186,0.\C,0,-5.203378157,
 1.3710487928,0.\C,0,-6.6259880591,1.3441917603,0.\C,0,-7.1344051894,0.
 0745341696,0.\S,0,-5.8752826968,-1.1198094764,0.\H,0,-4.6223716253,2.2
 873316898,0.\H,0,-7.2438754209,2.2354924399,0.\H,0,-8.1703713701,-0.23
 62148236,0.\C,0,-3.2253159341,-0.2415219504,0.\C,0,-2.6467648546,-1.49
 43964794,0.\S,0,-1.9790333374,0.9978144278,0.\C,0,-1.2320911635,-1.472
 7140199,0.\H,0,-3.2272266662,-2.4109523939,0.\C,0,-0.6927410364,-0.201
 4445421,0.\H,0,-0.6239383158,-2.371153747,0.\C,0,0.6924702271,0.200936
 5391,0.\C,0,1.2318203542,1.4722060169,0.\S,0,1.9787625281,-0.998322430
 8,0.\C,0,2.6464940453,1.4938884765,0.\H,0,0.6236675065,2.3706457441,0.
 \C,0,3.2250451248,0.2410139475,0.\H,0,3.2269558569,2.410444391,0.\C,0,
 4.6258993853,-0.1182855216,0.\C,0,5.2031073477,-1.3715567958,0.\S,0,5.
 8750118875,1.1193014734,0.\C,0,6.6257172498,-1.3446997633,0.\H,0,4.622
 100816,-2.2878396928,0.\C,0,7.1341343801,-0.0750421726,0.\H,0,7.243604
 6116,-2.2360004428,0.\H,0,8.1701005608,0.2357068207,0.\\Version=EM64L-
 G09RevA.02\State=1-AG\HF=-2208.4468242\RMSD=6.518e-09\PG=C02H [SGH(C16
 H10S4)]\\@


 LOGIC IS A SYSTEMATIC METHOD OF COMING TO THE
 WRONG CONCLUSION WITH CONFIDENCE.
 Job cpu time:  0 days  0 hours 47 minutes 27.5 seconds.
 File lengths (MBytes):  RWF=    175 Int=      0 D2E=      0 Chk=     19 Scr=      1
 Normal termination of Gaussian 09 at Fri Apr  8 11:27:16 2011.
