 Entering Gaussian System, Link 0=g03
 Input=PCBM_anion_B3LYP_631GSTAR_OPT.com
 Output=PCBM_anion_B3LYP_631GSTAR_OPT.log
 Initial command:
 /apps/gaussian/g09/g09/l1.exe /tmp/pbs.5461203.cx1/Gau-27697.inp -scrdir=/tmp/pbs.5461203.cx1/
 Entering Link 1 = /apps/gaussian/g09/g09/l1.exe PID=     27705.
  
 Copyright (c) 1988,1990,1992,1993,1995,1998,2003,2009, Gaussian, Inc.
                  All Rights Reserved.
  
 This is part of the Gaussian(R) 09 program.  It is based on
 the Gaussian(R) 03 system (copyright 2003, Gaussian, Inc.),
 the Gaussian(R) 98 system (copyright 1998, Gaussian, Inc.),
 the Gaussian(R) 94 system (copyright 1995, Gaussian, Inc.),
 the Gaussian 92(TM) system (copyright 1992, Gaussian, Inc.),
 the Gaussian 90(TM) system (copyright 1990, Gaussian, Inc.),
 the Gaussian 88(TM) system (copyright 1988, Gaussian, Inc.),
 the Gaussian 86(TM) system (copyright 1986, Carnegie Mellon
 University), and the Gaussian 82(TM) system (copyright 1983,
 Carnegie Mellon University). Gaussian is a federally registered
 trademark of Gaussian, Inc.
  
 This software contains proprietary and confidential information,
 including trade secrets, belonging to Gaussian, Inc.
  
 This software is provided under written license and may be
 used, copied, transmitted, or stored only in accord with that
 written license.
  
 The following legend is applicable only to US Government
 contracts under FAR:
  
                    RESTRICTED RIGHTS LEGEND
  
 Use, reproduction and disclosure by the US Government is
 subject to restrictions as set forth in subparagraphs (a)
 and (c) of the Commercial Computer Software - Restricted
 Rights clause in FAR 52.227-19.
  
 Gaussian, Inc.
 340 Quinnipiac St., Bldg. 40, Wallingford CT 06492
  
  
 ---------------------------------------------------------------
 Warning -- This program may not be used in any manner that
 competes with the business of Gaussian, Inc. or will provide
 assistance to any competitor of Gaussian, Inc.  The licensee
 of this program is prohibited from giving any competitor of
 Gaussian, Inc. access to this program.  By using this program,
 the user acknowledges that Gaussian, Inc. is engaged in the
 business of creating and licensing software in the field of
 computational chemistry and represents and warrants to the
 licensee that it is not a competitor of Gaussian, Inc. and that
 it will not use this program in any manner prohibited above.
 ---------------------------------------------------------------
  

 Cite this work as:
 Gaussian 09, Revision A.02,
 M. J. Frisch, G. W. Trucks, H. B. Schlegel, G. E. Scuseria, 
 M. A. Robb, J. R. Cheeseman, G. Scalmani, V. Barone, B. Mennucci, 
 G. A. Petersson, H. Nakatsuji, M. Caricato, X. Li, H. P. Hratchian, 
 A. F. Izmaylov, J. Bloino, G. Zheng, J. L. Sonnenberg, M. Hada, 
 M. Ehara, K. Toyota, R. Fukuda, J. Hasegawa, M. Ishida, T. Nakajima, 
 Y. Honda, O. Kitao, H. Nakai, T. Vreven, J. A. Montgomery, Jr., 
 J. E. Peralta, F. Ogliaro, M. Bearpark, J. J. Heyd, E. Brothers, 
 K. N. Kudin, V. N. Staroverov, R. Kobayashi, J. Normand, 
 K. Raghavachari, A. Rendell, J. C. Burant, S. S. Iyengar, J. Tomasi, 
 M. Cossi, N. Rega, J. M. Millam, M. Klene, J. E. Knox, J. B. Cross, 
 V. Bakken, C. Adamo, J. Jaramillo, R. Gomperts, R. E. Stratmann, 
 O. Yazyev, A. J. Austin, R. Cammi, C. Pomelli, J. W. Ochterski, 
 R. L. Martin, K. Morokuma, V. G. Zakrzewski, G. A. Voth, 
 P. Salvador, J. J. Dannenberg, S. Dapprich, A. D. Daniels, 
 O. Farkas, J. B. Foresman, J. V. Ortiz, J. Cioslowski, 
 and D. J. Fox, Gaussian, Inc., Wallingford CT, 2009.
 
 ******************************************
 Gaussian 09:  EM64L-G09RevA.02 11-Jun-2009
                12-Apr-2011 
 ******************************************
 %chk=PCBM_anion_B3LYP_631GSTAR_OPTopt.chk
 %nprocshared=8
 Will use up to    8 processors via shared memory.
 %mem=11000MB
 -------------------------------------
 #p opt B3LYP/6-31g* geom=connectivity
 -------------------------------------
 1/14=-1,18=20,19=15,26=3,38=1,57=2/1,3;
 2/9=110,12=2,17=6,18=5,40=1/2;
 3/5=1,6=6,7=1,11=2,16=1,25=1,30=1,71=1,74=-5/1,2,3;
 4//1;
 5/5=2,38=5/2;
 6/7=2,8=2,9=2,10=2,28=1/1;
 7//1,2,3,16;
 1/14=-1,18=20,19=15/3(2);
 2/9=110/2;
 99//99;
 2/9=110/2;
 3/5=1,6=6,7=1,11=2,16=1,25=1,30=1,71=1,74=-5/1,2,3;
 4/5=5,16=3/1;
 5/5=2,38=5/2;
 7//1,2,3,16;
 1/14=-1,18=20,19=15/3(-5);
 2/9=110/2;
 6/7=2,8=2,9=2,10=2,19=2,28=1/1;
 99/9=1/99;
 Leave Link    1 at Tue Apr 12 21:39:12 2011, MaxMem= 1441792000 cpu:       0.3
 (Enter /apps/gaussian/g09/g09/l101.exe)
 ---
 tit
 ---
 Symbolic Z-matrix:
 Charge = -1 Multiplicity = 2
 C                    -1.24574   1.41279  -1.46688 
 C                    -0.56531   0.81172  -2.58767 
 C                    -0.76155  -0.62408  -2.5284 
 C                    -1.57022  -0.92847  -1.37126 
 C                    -2.05006   0.35839  -0.77663 
 C                    -0.65461   2.477    -0.80466 
 C                     0.63883   1.33338  -3.0689 
 C                     0.25554  -1.48451  -2.95061 
 C                    -1.27042  -2.05367  -0.61643 
 C                    -2.03074   0.42042   0.83974 
 C                    -0.64077   2.53665   0.66962 
 C                     0.60688   3.01018  -1.27761 
 C                     1.6998    0.4378   -3.49895 
 C                     1.2395    2.46127  -2.39842 
 C                     0.54269  -2.6728   -2.18307 
 C                     1.51223  -0.94231  -3.44092 
 C                    -1.25373  -1.99475   0.85908 
 C                    -0.2007   -2.9408   -1.02922 
 C                    -1.2176    1.52934   1.42708 
 C                    -1.53543  -0.81155   1.52533 
 C                     0.63088   3.10465   1.07105 
 C                     1.39861   3.40188  -0.1252 
 C                     2.96517   1.01918  -3.08584 
 C                     2.67967   2.27164  -2.40419 
 C                     1.98112  -2.87468  -2.18909 
 C                     2.58171  -1.80367  -2.96795 
 C                    -0.17563  -2.84687   1.31928 
 C                     0.47099  -3.43421   0.15988 
 C                    -0.51202   1.02039   2.57846 
 C                    -0.70617  -0.41575   2.63853 
 C                     1.28754   2.64754   2.2184 
 C                     2.78332   3.23058  -0.13301 
 C                     3.99338   0.19303  -2.62834 
 C                     3.43688   2.64739  -1.29388 
 C                     2.62353  -3.34672  -1.0438 
 C                     3.79835  -1.24696  -2.56859 
 C                     0.59135  -2.48787   2.43254 
 C                     1.85156  -3.63776   0.15367 
 C                     0.70165   1.57801   2.99029 
 C                     0.31948  -1.24093   3.10742 
 C                     2.72751   2.45697   2.20901 
 C                     3.46142   2.74225   1.05707 
 C                     4.78169   0.58731  -1.47405 
 C                     4.50879   1.79127  -0.82131 
 C                     3.89021  -2.7715   -0.63094 
 C                     4.46575  -1.74077  -1.37669 
 C                     2.02978  -2.68902   2.42457 
 C                     2.64842  -3.25258   1.3075 
 C                     1.77238   0.7185    3.46802 
 C                     1.58541  -0.66172   3.52648 
 C                     3.02829   1.26333   2.9831 
 C                     4.52408   1.85005   0.63239 
 C                     5.07518  -0.60769  -0.70063 
 C                     3.90531  -2.71291   0.82286 
 C                     2.64553  -1.55883   3.10159 
 C                     4.0479    0.40263   2.57235 
 C                     4.81191   0.7023    1.37413 
 C                     5.09026  -0.5515    0.69352 
 C                     4.49553  -1.62605   1.47113 
 C                     3.85281  -1.03719   2.63274 
 C                    -3.3125    0.56703   0.03778 
 C                    -3.96463   1.93199   0.0214 
 C                    -4.22293   2.60829  -1.17705 
 C                    -4.39714   2.50493   1.22503 
 C                    -4.89391   3.83264  -1.17235 
 C                    -5.06749   3.72728   1.23196 
 C                    -5.31663   4.39593   0.03176 
 C                    -4.31994  -0.58935   0.10377 
 C                    -5.18511  -0.72195  -1.15834 
 C                    -6.10912  -1.94376  -1.1276 
 C                    -7.23082  -1.83801  -0.11004 
 H                    -3.89312   2.17912  -2.11877 
 H                    -4.20398   1.98984   2.16251 
 H                    -5.08358   4.34532  -2.11155 
 H                    -5.39374   4.15749   2.17491 
 H                    -5.83642   5.35014   0.03585 
 H                    -3.79175  -1.5324    0.27627 
 H                    -4.96667  -0.42143   0.97143 
 H                    -5.78794   0.18183  -1.292 
 H                    -4.53289  -0.80992  -2.03663 
 H                    -6.57932  -2.09272  -2.10881 
 H                    -5.54967  -2.86656  -0.92772 
 O                    -7.49919  -0.8593    0.55403 
 O                    -7.92717  -2.99482  -0.04418 
 C                    -9.03465  -2.99756   0.87203 
 H                    -9.76334  -2.23024   0.59722 
 H                    -9.47632  -3.99141   0.7939 
 H                    -8.69002  -2.80932   1.89238 
 
 NAtoms=     88 NQM=     88 NQMF=      0 NMic=      0 NMicF=      0 NTot=     88.
                    Isotopes and Nuclear Properties:
 (Nuclear quadrupole moments (NQMom) in fm**2, nuclear magnetic moments (NMagM)
  in nuclear magnetons)

  Atom         1           2           3           4           5           6           7           8           9          10
 IAtWgt=          12          12          12          12          12          12          12          12          12          12
 AtmWgt=  12.0000000  12.0000000  12.0000000  12.0000000  12.0000000  12.0000000  12.0000000  12.0000000  12.0000000  12.0000000
 NucSpn=           0           0           0           0           0           0           0           0           0           0
 AtZEff=   0.0000000   0.0000000   0.0000000   0.0000000   0.0000000   0.0000000   0.0000000   0.0000000   0.0000000   0.0000000
 NQMom=    0.0000000   0.0000000   0.0000000   0.0000000   0.0000000   0.0000000   0.0000000   0.0000000   0.0000000   0.0000000
 NMagM=    0.0000000   0.0000000   0.0000000   0.0000000   0.0000000   0.0000000   0.0000000   0.0000000   0.0000000   0.0000000

  Atom        11          12          13          14          15          16          17          18          19          20
 IAtWgt=          12          12          12          12          12          12          12          12          12          12
 AtmWgt=  12.0000000  12.0000000  12.0000000  12.0000000  12.0000000  12.0000000  12.0000000  12.0000000  12.0000000  12.0000000
 NucSpn=           0           0           0           0           0           0           0           0           0           0
 AtZEff=   0.0000000   0.0000000   0.0000000   0.0000000   0.0000000   0.0000000   0.0000000   0.0000000   0.0000000   0.0000000
 NQMom=    0.0000000   0.0000000   0.0000000   0.0000000   0.0000000   0.0000000   0.0000000   0.0000000   0.0000000   0.0000000
 NMagM=    0.0000000   0.0000000   0.0000000   0.0000000   0.0000000   0.0000000   0.0000000   0.0000000   0.0000000   0.0000000

  Atom        21          22          23          24          25          26          27          28          29          30
 IAtWgt=          12          12          12          12          12          12          12          12          12          12
 AtmWgt=  12.0000000  12.0000000  12.0000000  12.0000000  12.0000000  12.0000000  12.0000000  12.0000000  12.0000000  12.0000000
 NucSpn=           0           0           0           0           0           0           0           0           0           0
 AtZEff=   0.0000000   0.0000000   0.0000000   0.0000000   0.0000000   0.0000000   0.0000000   0.0000000   0.0000000   0.0000000
 NQMom=    0.0000000   0.0000000   0.0000000   0.0000000   0.0000000   0.0000000   0.0000000   0.0000000   0.0000000   0.0000000
 NMagM=    0.0000000   0.0000000   0.0000000   0.0000000   0.0000000   0.0000000   0.0000000   0.0000000   0.0000000   0.0000000

  Atom        31          32          33          34          35          36          37          38          39          40
 IAtWgt=          12          12          12          12          12          12          12          12          12          12
 AtmWgt=  12.0000000  12.0000000  12.0000000  12.0000000  12.0000000  12.0000000  12.0000000  12.0000000  12.0000000  12.0000000
 NucSpn=           0           0           0           0           0           0           0           0           0           0
 AtZEff=   0.0000000   0.0000000   0.0000000   0.0000000   0.0000000   0.0000000   0.0000000   0.0000000   0.0000000   0.0000000
 NQMom=    0.0000000   0.0000000   0.0000000   0.0000000   0.0000000   0.0000000   0.0000000   0.0000000   0.0000000   0.0000000
 NMagM=    0.0000000   0.0000000   0.0000000   0.0000000   0.0000000   0.0000000   0.0000000   0.0000000   0.0000000   0.0000000

  Atom        41          42          43          44          45          46          47          48          49          50
 IAtWgt=          12          12          12          12          12          12          12          12          12          12
 AtmWgt=  12.0000000  12.0000000  12.0000000  12.0000000  12.0000000  12.0000000  12.0000000  12.0000000  12.0000000  12.0000000
 NucSpn=           0           0           0           0           0           0           0           0           0           0
 AtZEff=   0.0000000   0.0000000   0.0000000   0.0000000   0.0000000   0.0000000   0.0000000   0.0000000   0.0000000   0.0000000
 NQMom=    0.0000000   0.0000000   0.0000000   0.0000000   0.0000000   0.0000000   0.0000000   0.0000000   0.0000000   0.0000000
 NMagM=    0.0000000   0.0000000   0.0000000   0.0000000   0.0000000   0.0000000   0.0000000   0.0000000   0.0000000   0.0000000

  Atom        51          52          53          54          55          56          57          58          59          60
 IAtWgt=          12          12          12          12          12          12          12          12          12          12
 AtmWgt=  12.0000000  12.0000000  12.0000000  12.0000000  12.0000000  12.0000000  12.0000000  12.0000000  12.0000000  12.0000000
 NucSpn=           0           0           0           0           0           0           0           0           0           0
 AtZEff=   0.0000000   0.0000000   0.0000000   0.0000000   0.0000000   0.0000000   0.0000000   0.0000000   0.0000000   0.0000000
 NQMom=    0.0000000   0.0000000   0.0000000   0.0000000   0.0000000   0.0000000   0.0000000   0.0000000   0.0000000   0.0000000
 NMagM=    0.0000000   0.0000000   0.0000000   0.0000000   0.0000000   0.0000000   0.0000000   0.0000000   0.0000000   0.0000000

  Atom        61          62          63          64          65          66          67          68          69          70
 IAtWgt=          12          12          12          12          12          12          12          12          12          12
 AtmWgt=  12.0000000  12.0000000  12.0000000  12.0000000  12.0000000  12.0000000  12.0000000  12.0000000  12.0000000  12.0000000
 NucSpn=           0           0           0           0           0           0           0           0           0           0
 AtZEff=   0.0000000   0.0000000   0.0000000   0.0000000   0.0000000   0.0000000   0.0000000   0.0000000   0.0000000   0.0000000
 NQMom=    0.0000000   0.0000000   0.0000000   0.0000000   0.0000000   0.0000000   0.0000000   0.0000000   0.0000000   0.0000000
 NMagM=    0.0000000   0.0000000   0.0000000   0.0000000   0.0000000   0.0000000   0.0000000   0.0000000   0.0000000   0.0000000

  Atom        71          72          73          74          75          76          77          78          79          80
 IAtWgt=          12           1           1           1           1           1           1           1           1           1
 AtmWgt=  12.0000000   1.0078250   1.0078250   1.0078250   1.0078250   1.0078250   1.0078250   1.0078250   1.0078250   1.0078250
 NucSpn=           0           1           1           1           1           1           1           1           1           1
 AtZEff=   0.0000000   0.0000000   0.0000000   0.0000000   0.0000000   0.0000000   0.0000000   0.0000000   0.0000000   0.0000000
 NQMom=    0.0000000   0.0000000   0.0000000   0.0000000   0.0000000   0.0000000   0.0000000   0.0000000   0.0000000   0.0000000
 NMagM=    0.0000000   2.7928460   2.7928460   2.7928460   2.7928460   2.7928460   2.7928460   2.7928460   2.7928460   2.7928460

  Atom        81          82          83          84          85          86          87          88
 IAtWgt=           1           1          16          16          12           1           1           1
 AtmWgt=   1.0078250   1.0078250  15.9949146  15.9949146  12.0000000   1.0078250   1.0078250   1.0078250
 NucSpn=           1           1           0           0           0           1           1           1
 AtZEff=   0.0000000   0.0000000   0.0000000   0.0000000   0.0000000   0.0000000   0.0000000   0.0000000
 NQMom=    0.0000000   0.0000000   0.0000000   0.0000000   0.0000000   0.0000000   0.0000000   0.0000000
 NMagM=    2.7928460   2.7928460   0.0000000   0.0000000   0.0000000   2.7928460   2.7928460   2.7928460
 Leave Link  101 at Tue Apr 12 21:39:12 2011, MaxMem= 1441792000 cpu:       0.9
 (Enter /apps/gaussian/g09/g09/l103.exe)

 GradGradGradGradGradGradGradGradGradGradGradGradGradGradGradGradGradGrad
 Berny optimization.
 Initialization pass.
                           ----------------------------
                           !    Initial Parameters    !
                           ! (Angstroms and Degrees)  !
 --------------------------                            --------------------------
 ! Name  Definition              Value          Derivative Info.                !
 --------------------------------------------------------------------------------
 ! R1    R(1,2)                  1.4424         estimate D2E/DX2                !
 ! R2    R(1,5)                  1.495          estimate D2E/DX2                !
 ! R3    R(1,6)                  1.3858         estimate D2E/DX2                !
 ! R4    R(2,3)                  1.4504         estimate D2E/DX2                !
 ! R5    R(2,7)                  1.3977         estimate D2E/DX2                !
 ! R6    R(3,4)                  1.4441         estimate D2E/DX2                !
 ! R7    R(3,8)                  1.3975         estimate D2E/DX2                !
 ! R8    R(4,5)                  1.4966         estimate D2E/DX2                !
 ! R9    R(4,9)                  1.3877         estimate D2E/DX2                !
 ! R10   R(5,10)                 1.6177         estimate D2E/DX2                !
 ! R11   R(5,61)                 1.5168         estimate D2E/DX2                !
 ! R12   R(6,11)                 1.4756         estimate D2E/DX2                !
 ! R13   R(6,12)                 1.4489         estimate D2E/DX2                !
 ! R14   R(7,13)                 1.4535         estimate D2E/DX2                !
 ! R15   R(7,14)                 1.4431         estimate D2E/DX2                !
 ! R16   R(8,15)                 1.4435         estimate D2E/DX2                !
 ! R17   R(8,16)                 1.4538         estimate D2E/DX2                !
 ! R18   R(9,17)                 1.4768         estimate D2E/DX2                !
 ! R19   R(9,18)                 1.4497         estimate D2E/DX2                !
 ! R20   R(10,19)                1.4953         estimate D2E/DX2                !
 ! R21   R(10,20)                1.4944         estimate D2E/DX2                !
 ! R22   R(10,61)                1.5191         estimate D2E/DX2                !
 ! R23   R(11,19)                1.3861         estimate D2E/DX2                !
 ! R24   R(11,21)                1.4494         estimate D2E/DX2                !
 ! R25   R(12,14)                1.3992         estimate D2E/DX2                !
 ! R26   R(12,22)                1.452          estimate D2E/DX2                !
 ! R27   R(13,16)                1.394          estimate D2E/DX2                !
 ! R28   R(13,23)                1.4525         estimate D2E/DX2                !
 ! R29   R(14,24)                1.4526         estimate D2E/DX2                !
 ! R30   R(15,18)                1.3985         estimate D2E/DX2                !
 ! R31   R(15,25)                1.4525         estimate D2E/DX2                !
 ! R32   R(16,26)                1.4524         estimate D2E/DX2                !
 ! R33   R(17,20)                1.3868         estimate D2E/DX2                !
 ! R34   R(17,27)                1.4492         estimate D2E/DX2                !
 ! R35   R(18,28)                1.4521         estimate D2E/DX2                !
 ! R36   R(19,29)                1.4431         estimate D2E/DX2                !
 ! R37   R(20,30)                1.4434         estimate D2E/DX2                !
 ! R38   R(21,22)                1.4522         estimate D2E/DX2                !
 ! R39   R(21,31)                1.3988         estimate D2E/DX2                !
 ! R40   R(22,32)                1.3953         estimate D2E/DX2                !
 ! R41   R(23,24)                1.4542         estimate D2E/DX2                !
 ! R42   R(23,33)                1.3961         estimate D2E/DX2                !
 ! R43   R(24,34)                1.3955         estimate D2E/DX2                !
 ! R44   R(25,26)                1.4541         estimate D2E/DX2                !
 ! R45   R(25,35)                1.3954         estimate D2E/DX2                !
 ! R46   R(26,36)                1.3963         estimate D2E/DX2                !
 ! R47   R(27,28)                1.4517         estimate D2E/DX2                !
 ! R48   R(27,37)                1.3987         estimate D2E/DX2                !
 ! R49   R(28,38)                1.3955         estimate D2E/DX2                !
 ! R50   R(29,30)                1.4505         estimate D2E/DX2                !
 ! R51   R(29,39)                1.3977         estimate D2E/DX2                !
 ! R52   R(30,40)                1.3974         estimate D2E/DX2                !
 ! R53   R(31,39)                1.4433         estimate D2E/DX2                !
 ! R54   R(31,41)                1.4526         estimate D2E/DX2                !
 ! R55   R(32,34)                1.4543         estimate D2E/DX2                !
 ! R56   R(32,42)                1.4542         estimate D2E/DX2                !
 ! R57   R(33,36)                1.4544         estimate D2E/DX2                !
 ! R58   R(33,43)                1.4523         estimate D2E/DX2                !
 ! R59   R(34,44)                1.451          estimate D2E/DX2                !
 ! R60   R(35,38)                1.4542         estimate D2E/DX2                !
 ! R61   R(35,45)                1.4511         estimate D2E/DX2                !
 ! R62   R(36,46)                1.4525         estimate D2E/DX2                !
 ! R63   R(37,40)                1.4437         estimate D2E/DX2                !
 ! R64   R(37,47)                1.4525         estimate D2E/DX2                !
 ! R65   R(38,48)                1.4542         estimate D2E/DX2                !
 ! R66   R(39,49)                1.4538         estimate D2E/DX2                !
 ! R67   R(40,50)                1.4538         estimate D2E/DX2                !
 ! R68   R(41,42)                1.3953         estimate D2E/DX2                !
 ! R69   R(41,51)                1.4541         estimate D2E/DX2                !
 ! R70   R(42,52)                1.4511         estimate D2E/DX2                !
 ! R71   R(43,44)                1.3964         estimate D2E/DX2                !
 ! R72   R(43,53)                1.4534         estimate D2E/DX2                !
 ! R73   R(44,52)                1.455          estimate D2E/DX2                !
 ! R74   R(45,46)                1.3963         estimate D2E/DX2                !
 ! R75   R(45,54)                1.4551         estimate D2E/DX2                !
 ! R76   R(46,53)                1.4534         estimate D2E/DX2                !
 ! R77   R(47,48)                1.3958         estimate D2E/DX2                !
 ! R78   R(47,55)                1.4543         estimate D2E/DX2                !
 ! R79   R(48,54)                1.4512         estimate D2E/DX2                !
 ! R80   R(49,50)                1.3941         estimate D2E/DX2                !
 ! R81   R(49,51)                1.4523         estimate D2E/DX2                !
 ! R82   R(50,55)                1.4523         estimate D2E/DX2                !
 ! R83   R(51,56)                1.3961         estimate D2E/DX2                !
 ! R84   R(52,57)                1.3965         estimate D2E/DX2                !
 ! R85   R(53,58)                1.3954         estimate D2E/DX2                !
 ! R86   R(54,59)                1.3964         estimate D2E/DX2                !
 ! R87   R(55,60)                1.3962         estimate D2E/DX2                !
 ! R88   R(56,57)                1.4523         estimate D2E/DX2                !
 ! R89   R(56,60)                1.4542         estimate D2E/DX2                !
 ! R90   R(57,58)                1.4535         estimate D2E/DX2                !
 ! R91   R(58,59)                1.4536         estimate D2E/DX2                !
 ! R92   R(59,60)                1.4523         estimate D2E/DX2                !
 ! R93   R(61,62)                1.5128         estimate D2E/DX2                !
 ! R94   R(61,68)                1.5351         estimate D2E/DX2                !
 ! R95   R(62,63)                1.4001         estimate D2E/DX2                !
 ! R96   R(62,64)                1.4015         estimate D2E/DX2                !
 ! R97   R(63,65)                1.3962         estimate D2E/DX2                !
 ! R98   R(63,72)                1.0862         estimate D2E/DX2                !
 ! R99   R(64,66)                1.3941         estimate D2E/DX2                !
 ! R100  R(64,73)                1.087          estimate D2E/DX2                !
 ! R101  R(65,67)                1.3949         estimate D2E/DX2                !
 ! R102  R(65,74)                1.0867         estimate D2E/DX2                !
 ! R103  R(66,67)                1.3963         estimate D2E/DX2                !
 ! R104  R(66,75)                1.0866         estimate D2E/DX2                !
 ! R105  R(67,76)                1.0866         estimate D2E/DX2                !
 ! R106  R(68,69)                1.5359         estimate D2E/DX2                !
 ! R107  R(68,77)                1.0946         estimate D2E/DX2                !
 ! R108  R(68,78)                1.0951         estimate D2E/DX2                !
 ! R109  R(69,70)                1.5322         estimate D2E/DX2                !
 ! R110  R(69,79)                1.0946         estimate D2E/DX2                !
 ! R111  R(69,80)                1.0975         estimate D2E/DX2                !
 ! R112  R(70,71)                1.5182         estimate D2E/DX2                !
 ! R113  R(70,81)                1.0982         estimate D2E/DX2                !
 ! R114  R(70,82)                1.0975         estimate D2E/DX2                !
 ! R115  R(71,83)                1.2128         estimate D2E/DX2                !
 ! R116  R(71,84)                1.3518         estimate D2E/DX2                !
 ! R117  R(84,85)                1.4373         estimate D2E/DX2                !
 ! R118  R(85,86)                1.0933         estimate D2E/DX2                !
 ! R119  R(85,87)                1.0904         estimate D2E/DX2                !
 ! R120  R(85,88)                1.0933         estimate D2E/DX2                !
 ! A1    A(2,1,5)              108.5812         estimate D2E/DX2                !
 ! A2    A(2,1,6)              119.3473         estimate D2E/DX2                !
 ! A3    A(5,1,6)              123.3984         estimate D2E/DX2                !
 ! A4    A(1,2,3)              108.479          estimate D2E/DX2                !
 ! A5    A(1,2,7)              121.2255         estimate D2E/DX2                !
 ! A6    A(3,2,7)              120.0068         estimate D2E/DX2                !
 ! A7    A(2,3,4)              108.4919         estimate D2E/DX2                !
 ! A8    A(2,3,8)              119.9133         estimate D2E/DX2                !
 ! A9    A(4,3,8)              121.3206         estimate D2E/DX2                !
 ! A10   A(3,4,5)              108.4606         estimate D2E/DX2                !
 ! A11   A(3,4,9)              119.0629         estimate D2E/DX2                !
 ! A12   A(5,4,9)              123.3906         estimate D2E/DX2                !
 ! A13   A(1,5,4)              104.5068         estimate D2E/DX2                !
 ! A14   A(1,5,10)             115.3312         estimate D2E/DX2                !
 ! A15   A(1,5,61)             126.7753         estimate D2E/DX2                !
 ! A16   A(4,5,10)             115.2229         estimate D2E/DX2                !
 ! A17   A(4,5,61)             126.7607         estimate D2E/DX2                !
 ! A18   A(1,6,11)             120.8296         estimate D2E/DX2                !
 ! A19   A(1,6,12)             119.8673         estimate D2E/DX2                !
 ! A20   A(11,6,12)            107.6433         estimate D2E/DX2                !
 ! A21   A(2,7,13)             120.0493         estimate D2E/DX2                !
 ! A22   A(2,7,14)             119.362          estimate D2E/DX2                !
 ! A23   A(13,7,14)            108.3735         estimate D2E/DX2                !
 ! A24   A(3,8,15)             119.4049         estimate D2E/DX2                !
 ! A25   A(3,8,16)             120.0898         estimate D2E/DX2                !
 ! A26   A(15,8,16)            108.3235         estimate D2E/DX2                !
 ! A27   A(4,9,17)             120.9017         estimate D2E/DX2                !
 ! A28   A(4,9,18)             120.0467         estimate D2E/DX2                !
 ! A29   A(17,9,18)            107.4919         estimate D2E/DX2                !
 ! A30   A(5,10,19)            115.3035         estimate D2E/DX2                !
 ! A31   A(5,10,20)            115.516          estimate D2E/DX2                !
 ! A32   A(19,10,20)           104.5329         estimate D2E/DX2                !
 ! A33   A(19,10,61)           126.4876         estimate D2E/DX2                !
 ! A34   A(20,10,61)           126.9738         estimate D2E/DX2                !
 ! A35   A(6,11,19)            120.8457         estimate D2E/DX2                !
 ! A36   A(6,11,21)            107.5051         estimate D2E/DX2                !
 ! A37   A(19,11,21)           119.9048         estimate D2E/DX2                !
 ! A38   A(6,12,14)            120.7145         estimate D2E/DX2                !
 ! A39   A(6,12,22)            108.3574         estimate D2E/DX2                !
 ! A40   A(14,12,22)           119.6737         estimate D2E/DX2                !
 ! A41   A(7,13,16)            119.9657         estimate D2E/DX2                !
 ! A42   A(7,13,23)            107.7655         estimate D2E/DX2                !
 ! A43   A(16,13,23)           120.1087         estimate D2E/DX2                !
 ! A44   A(7,14,12)            119.3799         estimate D2E/DX2                !
 ! A45   A(7,14,24)            107.987          estimate D2E/DX2                !
 ! A46   A(12,14,24)           120.1759         estimate D2E/DX2                !
 ! A47   A(8,15,18)            119.3879         estimate D2E/DX2                !
 ! A48   A(8,15,25)            108.0119         estimate D2E/DX2                !
 ! A49   A(18,15,25)           120.2104         estimate D2E/DX2                !
 ! A50   A(8,16,13)            119.9716         estimate D2E/DX2                !
 ! A51   A(8,16,26)            107.7885         estimate D2E/DX2                !
 ! A52   A(13,16,26)           120.1079         estimate D2E/DX2                !
 ! A53   A(9,17,20)            120.781          estimate D2E/DX2                !
 ! A54   A(9,17,27)            107.5913         estimate D2E/DX2                !
 ! A55   A(20,17,27)           120.0145         estimate D2E/DX2                !
 ! A56   A(9,18,15)            120.6562         estimate D2E/DX2                !
 ! A57   A(9,18,28)            108.426          estimate D2E/DX2                !
 ! A58   A(15,18,28)           119.6608         estimate D2E/DX2                !
 ! A59   A(10,19,11)           123.4095         estimate D2E/DX2                !
 ! A60   A(10,19,29)           108.5257         estimate D2E/DX2                !
 ! A61   A(11,19,29)           119.2642         estimate D2E/DX2                !
 ! A62   A(10,20,17)           123.387          estimate D2E/DX2                !
 ! A63   A(10,20,30)           108.5533         estimate D2E/DX2                !
 ! A64   A(17,20,30)           119.1934         estimate D2E/DX2                !
 ! A65   A(11,21,22)           108.4146         estimate D2E/DX2                !
 ! A66   A(11,21,31)           120.73           estimate D2E/DX2                !
 ! A67   A(22,21,31)           119.6302         estimate D2E/DX2                !
 ! A68   A(12,22,21)           108.0783         estimate D2E/DX2                !
 ! A69   A(12,22,32)           120.2367         estimate D2E/DX2                !
 ! A70   A(21,22,32)           120.2751         estimate D2E/DX2                !
 ! A71   A(13,23,24)           107.8788         estimate D2E/DX2                !
 ! A72   A(13,23,33)           119.8642         estimate D2E/DX2                !
 ! A73   A(24,23,33)           120.0424         estimate D2E/DX2                !
 ! A74   A(14,24,23)           107.995          estimate D2E/DX2                !
 ! A75   A(14,24,34)           119.9775         estimate D2E/DX2                !
 ! A76   A(23,24,34)           119.889          estimate D2E/DX2                !
 ! A77   A(15,25,26)           107.9911         estimate D2E/DX2                !
 ! A78   A(15,25,35)           119.968          estimate D2E/DX2                !
 ! A79   A(26,25,35)           119.9093         estimate D2E/DX2                !
 ! A80   A(16,26,25)           107.8849         estimate D2E/DX2                !
 ! A81   A(16,26,36)           119.8877         estimate D2E/DX2                !
 ! A82   A(25,26,36)           120.0236         estimate D2E/DX2                !
 ! A83   A(17,27,28)           108.4001         estimate D2E/DX2                !
 ! A84   A(17,27,37)           120.6469         estimate D2E/DX2                !
 ! A85   A(28,27,37)           119.6869         estimate D2E/DX2                !
 ! A86   A(18,28,27)           108.0894         estimate D2E/DX2                !
 ! A87   A(18,28,38)           120.2339         estimate D2E/DX2                !
 ! A88   A(27,28,38)           120.2148         estimate D2E/DX2                !
 ! A89   A(19,29,30)           108.4688         estimate D2E/DX2                !
 ! A90   A(19,29,39)           121.2616         estimate D2E/DX2                !
 ! A91   A(30,29,39)           119.9373         estimate D2E/DX2                !
 ! A92   A(20,30,29)           108.449          estimate D2E/DX2                !
 ! A93   A(20,30,40)           121.2333         estimate D2E/DX2                !
 ! A94   A(29,30,40)           120.0217         estimate D2E/DX2                !
 ! A95   A(21,31,39)           119.3595         estimate D2E/DX2                !
 ! A96   A(21,31,41)           120.1963         estimate D2E/DX2                !
 ! A97   A(39,31,41)           107.9789         estimate D2E/DX2                !
 ! A98   A(22,32,34)           119.9807         estimate D2E/DX2                !
 ! A99   A(22,32,42)           119.9624         estimate D2E/DX2                !
 ! A100  A(34,32,42)           108.0018         estimate D2E/DX2                !
 ! A101  A(23,33,36)           120.0405         estimate D2E/DX2                !
 ! A102  A(23,33,43)           119.9707         estimate D2E/DX2                !
 ! A103  A(36,33,43)           107.9948         estimate D2E/DX2                !
 ! A104  A(24,34,32)           119.9505         estimate D2E/DX2                !
 ! A105  A(24,34,44)           120.0749         estimate D2E/DX2                !
 ! A106  A(32,34,44)           107.9778         estimate D2E/DX2                !
 ! A107  A(25,35,38)           119.9453         estimate D2E/DX2                !
 ! A108  A(25,35,45)           120.0839         estimate D2E/DX2                !
 ! A109  A(38,35,45)           107.9649         estimate D2E/DX2                !
 ! A110  A(26,36,33)           119.9908         estimate D2E/DX2                !
 ! A111  A(26,36,46)           119.9668         estimate D2E/DX2                !
 ! A112  A(33,36,46)           107.981          estimate D2E/DX2                !
 ! A113  A(27,37,40)           119.3724         estimate D2E/DX2                !
 ! A114  A(27,37,47)           120.2074         estimate D2E/DX2                !
 ! A115  A(40,37,47)           107.9796         estimate D2E/DX2                !
 ! A116  A(28,38,35)           119.9777         estimate D2E/DX2                !
 ! A117  A(28,38,48)           119.9958         estimate D2E/DX2                !
 ! A118  A(35,38,48)           108.0278         estimate D2E/DX2                !
 ! A119  A(29,39,31)           119.3777         estimate D2E/DX2                !
 ! A120  A(29,39,49)           120.0332         estimate D2E/DX2                !
 ! A121  A(31,39,49)           108.3544         estimate D2E/DX2                !
 ! A122  A(30,40,37)           119.4318         estimate D2E/DX2                !
 ! A123  A(30,40,50)           120.0374         estimate D2E/DX2                !
 ! A124  A(37,40,50)           108.3531         estimate D2E/DX2                !
 ! A125  A(31,41,42)           119.9952         estimate D2E/DX2                !
 ! A126  A(31,41,51)           108.0177         estimate D2E/DX2                !
 ! A127  A(42,41,51)           119.9016         estimate D2E/DX2                !
 ! A128  A(32,42,41)           119.9355         estimate D2E/DX2                !
 ! A129  A(32,42,52)           107.9662         estimate D2E/DX2                !
 ! A130  A(41,42,52)           120.0721         estimate D2E/DX2                !
 ! A131  A(33,43,44)           119.9664         estimate D2E/DX2                !
 ! A132  A(33,43,53)           108.0192         estimate D2E/DX2                !
 ! A133  A(44,43,53)           119.9738         estimate D2E/DX2                !
 ! A134  A(34,44,43)           120.0559         estimate D2E/DX2                !
 ! A135  A(34,44,52)           108.0188         estimate D2E/DX2                !
 ! A136  A(43,44,52)           119.9867         estimate D2E/DX2                !
 ! A137  A(35,45,46)           120.0288         estimate D2E/DX2                !
 ! A138  A(35,45,54)           108.016          estimate D2E/DX2                !
 ! A139  A(46,45,54)           119.9741         estimate D2E/DX2                !
 ! A140  A(36,46,45)           119.9869         estimate D2E/DX2                !
 ! A141  A(36,46,53)           108.0181         estimate D2E/DX2                !
 ! A142  A(45,46,53)           119.9923         estimate D2E/DX2                !
 ! A143  A(37,47,48)           119.9506         estimate D2E/DX2                !
 ! A144  A(37,47,55)           108.0073         estimate D2E/DX2                !
 ! A145  A(48,47,55)           119.9153         estimate D2E/DX2                !
 ! A146  A(38,48,47)           119.9404         estimate D2E/DX2                !
 ! A147  A(38,48,54)           107.9468         estimate D2E/DX2                !
 ! A148  A(47,48,54)           120.067          estimate D2E/DX2                !
 ! A149  A(39,49,50)           120.0237         estimate D2E/DX2                !
 ! A150  A(39,49,51)           107.7818         estimate D2E/DX2                !
 ! A151  A(50,49,51)           120.0928         estimate D2E/DX2                !
 ! A152  A(40,50,49)           119.9434         estimate D2E/DX2                !
 ! A153  A(40,50,55)           107.7695         estimate D2E/DX2                !
 ! A154  A(49,50,55)           120.0934         estimate D2E/DX2                !
 ! A155  A(41,51,49)           107.867          estimate D2E/DX2                !
 ! A156  A(41,51,56)           120.0337         estimate D2E/DX2                !
 ! A157  A(49,51,56)           119.9008         estimate D2E/DX2                !
 ! A158  A(42,52,44)           108.0328         estimate D2E/DX2                !
 ! A159  A(42,52,57)           120.0535         estimate D2E/DX2                !
 ! A160  A(44,52,57)           119.9748         estimate D2E/DX2                !
 ! A161  A(43,53,46)           107.9869         estimate D2E/DX2                !
 ! A162  A(43,53,58)           120.0504         estimate D2E/DX2                !
 ! A163  A(46,53,58)           120.0449         estimate D2E/DX2                !
 ! A164  A(45,54,48)           108.0418         estimate D2E/DX2                !
 ! A165  A(45,54,59)           119.9718         estimate D2E/DX2                !
 ! A166  A(48,54,59)           120.0336         estimate D2E/DX2                !
 ! A167  A(47,55,50)           107.8902         estimate D2E/DX2                !
 ! A168  A(47,55,60)           120.0085         estimate D2E/DX2                !
 ! A169  A(50,55,60)           119.91           estimate D2E/DX2                !
 ! A170  A(51,56,57)           119.9812         estimate D2E/DX2                !
 ! A171  A(51,56,60)           120.0132         estimate D2E/DX2                !
 ! A172  A(57,56,60)           108.0068         estimate D2E/DX2                !
 ! A173  A(52,57,56)           119.9574         estimate D2E/DX2                !
 ! A174  A(52,57,58)           119.9799         estimate D2E/DX2                !
 ! A175  A(56,57,58)           108.0032         estimate D2E/DX2                !
 ! A176  A(53,58,57)           120.0333         estimate D2E/DX2                !
 ! A177  A(53,58,59)           120.0192         estimate D2E/DX2                !
 ! A178  A(57,58,59)           107.9879         estimate D2E/DX2                !
 ! A179  A(54,59,58)           119.9969         estimate D2E/DX2                !
 ! A180  A(54,59,60)           119.9905         estimate D2E/DX2                !
 ! A181  A(58,59,60)           108.0111         estimate D2E/DX2                !
 ! A182  A(55,60,56)           119.9896         estimate D2E/DX2                !
 ! A183  A(55,60,59)           119.9847         estimate D2E/DX2                !
 ! A184  A(56,60,59)           107.9908         estimate D2E/DX2                !
 ! A185  A(5,61,62)            118.4949         estimate D2E/DX2                !
 ! A186  A(5,61,68)            117.7554         estimate D2E/DX2                !
 ! A187  A(10,61,62)           117.163          estimate D2E/DX2                !
 ! A188  A(10,61,68)           117.2814         estimate D2E/DX2                !
 ! A189  A(62,61,68)           113.4054         estimate D2E/DX2                !
 ! A190  A(61,62,63)           121.642          estimate D2E/DX2                !
 ! A191  A(61,62,64)           119.5111         estimate D2E/DX2                !
 ! A192  A(63,62,64)           118.7328         estimate D2E/DX2                !
 ! A193  A(62,63,65)           120.6215         estimate D2E/DX2                !
 ! A194  A(62,63,72)           119.6858         estimate D2E/DX2                !
 ! A195  A(65,63,72)           119.6918         estimate D2E/DX2                !
 ! A196  A(62,64,66)           120.7381         estimate D2E/DX2                !
 ! A197  A(62,64,73)           119.4824         estimate D2E/DX2                !
 ! A198  A(66,64,73)           119.7792         estimate D2E/DX2                !
 ! A199  A(63,65,67)           120.1759         estimate D2E/DX2                !
 ! A200  A(63,65,74)           119.6495         estimate D2E/DX2                !
 ! A201  A(67,65,74)           120.1745         estimate D2E/DX2                !
 ! A202  A(64,66,67)           120.0927         estimate D2E/DX2                !
 ! A203  A(64,66,75)           119.7242         estimate D2E/DX2                !
 ! A204  A(67,66,75)           120.1831         estimate D2E/DX2                !
 ! A205  A(65,67,66)           119.6384         estimate D2E/DX2                !
 ! A206  A(65,67,76)           120.1866         estimate D2E/DX2                !
 ! A207  A(66,67,76)           120.1751         estimate D2E/DX2                !
 ! A208  A(61,68,69)           113.5401         estimate D2E/DX2                !
 ! A209  A(61,68,77)           109.8224         estimate D2E/DX2                !
 ! A210  A(61,68,78)           107.8257         estimate D2E/DX2                !
 ! A211  A(69,68,77)           109.0829         estimate D2E/DX2                !
 ! A212  A(69,68,78)           109.368          estimate D2E/DX2                !
 ! A213  A(77,68,78)           106.9908         estimate D2E/DX2                !
 ! A214  A(68,69,70)           113.0834         estimate D2E/DX2                !
 ! A215  A(68,69,79)           109.8334         estimate D2E/DX2                !
 ! A216  A(68,69,80)           109.2542         estimate D2E/DX2                !
 ! A217  A(70,69,79)           109.1933         estimate D2E/DX2                !
 ! A218  A(70,69,80)           108.0908         estimate D2E/DX2                !
 ! A219  A(79,69,80)           107.203          estimate D2E/DX2                !
 ! A220  A(69,70,71)           113.7958         estimate D2E/DX2                !
 ! A221  A(69,70,81)           110.3927         estimate D2E/DX2                !
 ! A222  A(69,70,82)           111.5147         estimate D2E/DX2                !
 ! A223  A(71,70,81)           106.9751         estimate D2E/DX2                !
 ! A224  A(71,70,82)           108.2478         estimate D2E/DX2                !
 ! A225  A(81,70,82)           105.4815         estimate D2E/DX2                !
 ! A226  A(70,71,83)           125.9235         estimate D2E/DX2                !
 ! A227  A(70,71,84)           110.7102         estimate D2E/DX2                !
 ! A228  A(83,71,84)           123.3605         estimate D2E/DX2                !
 ! A229  A(71,84,85)           115.4415         estimate D2E/DX2                !
 ! A230  A(84,85,86)           110.6085         estimate D2E/DX2                !
 ! A231  A(84,85,87)           105.5556         estimate D2E/DX2                !
 ! A232  A(84,85,88)           110.591          estimate D2E/DX2                !
 ! A233  A(86,85,87)           110.5923         estimate D2E/DX2                !
 ! A234  A(86,85,88)           108.8954         estimate D2E/DX2                !
 ! A235  A(87,85,88)           110.5788         estimate D2E/DX2                !
 ! D1    D(5,1,2,3)             -7.7232         estimate D2E/DX2                !
 ! D2    D(5,1,2,7)           -152.7292         estimate D2E/DX2                !
 ! D3    D(6,1,2,3)            141.0637         estimate D2E/DX2                !
 ! D4    D(6,1,2,7)             -3.9423         estimate D2E/DX2                !
 ! D5    D(2,1,5,4)             11.8418         estimate D2E/DX2                !
 ! D6    D(2,1,5,10)           139.3937         estimate D2E/DX2                !
 ! D7    D(2,1,5,61)          -152.9907         estimate D2E/DX2                !
 ! D8    D(6,1,5,4)           -135.402          estimate D2E/DX2                !
 ! D9    D(6,1,5,10)            -7.8501         estimate D2E/DX2                !
 ! D10   D(6,1,5,61)            59.7655         estimate D2E/DX2                !
 ! D11   D(2,1,6,11)          -135.9128         estimate D2E/DX2                !
 ! D12   D(2,1,6,12)             2.6569         estimate D2E/DX2                !
 ! D13   D(5,1,6,11)             8.0457         estimate D2E/DX2                !
 ! D14   D(5,1,6,12)           146.6154         estimate D2E/DX2                !
 ! D15   D(1,2,3,4)              0.1795         estimate D2E/DX2                !
 ! D16   D(1,2,3,8)           -145.3871         estimate D2E/DX2                !
 ! D17   D(7,2,3,4)            145.6857         estimate D2E/DX2                !
 ! D18   D(7,2,3,8)              0.119          estimate D2E/DX2                !
 ! D19   D(1,2,7,13)           140.5328         estimate D2E/DX2                !
 ! D20   D(1,2,7,14)             2.5202         estimate D2E/DX2                !
 ! D21   D(3,2,7,13)            -0.5564         estimate D2E/DX2                !
 ! D22   D(3,2,7,14)          -138.569          estimate D2E/DX2                !
 ! D23   D(2,3,4,5)              7.4206         estimate D2E/DX2                !
 ! D24   D(2,3,4,9)           -140.7153         estimate D2E/DX2                !
 ! D25   D(8,3,4,5)            152.4101         estimate D2E/DX2                !
 ! D26   D(8,3,4,9)              4.2742         estimate D2E/DX2                !
 ! D27   D(2,3,8,15)           138.4283         estimate D2E/DX2                !
 ! D28   D(2,3,8,16)             0.3858         estimate D2E/DX2                !
 ! D29   D(4,3,8,15)            -2.6889         estimate D2E/DX2                !
 ! D30   D(4,3,8,16)          -140.7314         estimate D2E/DX2                !
 ! D31   D(3,4,5,1)            -11.717          estimate D2E/DX2                !
 ! D32   D(3,4,5,10)          -139.3353         estimate D2E/DX2                !
 ! D33   D(3,4,5,61)           153.1185         estimate D2E/DX2                !
 ! D34   D(9,4,5,1)            134.7334         estimate D2E/DX2                !
 ! D35   D(9,4,5,10)             7.1151         estimate D2E/DX2                !
 ! D36   D(9,4,5,61)           -60.4311         estimate D2E/DX2                !
 ! D37   D(3,4,9,17)           135.6542         estimate D2E/DX2                !
 ! D38   D(3,4,9,18)            -3.0131         estimate D2E/DX2                !
 ! D39   D(5,4,9,17)            -7.4949         estimate D2E/DX2                !
 ! D40   D(5,4,9,18)          -146.1622         estimate D2E/DX2                !
 ! D41   D(1,5,10,19)            0.3584         estimate D2E/DX2                !
 ! D42   D(1,5,10,20)         -121.8654         estimate D2E/DX2                !
 ! D43   D(4,5,10,19)          122.3185         estimate D2E/DX2                !
 ! D44   D(4,5,10,20)            0.0948         estimate D2E/DX2                !
 ! D45   D(1,5,61,62)            9.1297         estimate D2E/DX2                !
 ! D46   D(1,5,61,68)          151.9193         estimate D2E/DX2                !
 ! D47   D(4,5,61,62)         -152.4386         estimate D2E/DX2                !
 ! D48   D(4,5,61,68)           -9.649          estimate D2E/DX2                !
 ! D49   D(1,6,11,19)            0.0537         estimate D2E/DX2                !
 ! D50   D(1,6,11,21)          142.9222         estimate D2E/DX2                !
 ! D51   D(12,6,11,19)        -142.9226         estimate D2E/DX2                !
 ! D52   D(12,6,11,21)          -0.0541         estimate D2E/DX2                !
 ! D53   D(1,6,12,14)           -0.0645         estimate D2E/DX2                !
 ! D54   D(1,6,12,22)         -143.5639         estimate D2E/DX2                !
 ! D55   D(11,6,12,14)         143.3335         estimate D2E/DX2                !
 ! D56   D(11,6,12,22)          -0.1659         estimate D2E/DX2                !
 ! D57   D(2,7,13,16)            0.4907         estimate D2E/DX2                !
 ! D58   D(2,7,13,23)         -141.9543         estimate D2E/DX2                !
 ! D59   D(14,7,13,16)         142.586          estimate D2E/DX2                !
 ! D60   D(14,7,13,23)           0.141          estimate D2E/DX2                !
 ! D61   D(2,7,14,12)            0.1214         estimate D2E/DX2                !
 ! D62   D(2,7,14,24)          142.2397         estimate D2E/DX2                !
 ! D63   D(13,7,14,12)        -142.2776         estimate D2E/DX2                !
 ! D64   D(13,7,14,24)          -0.1593         estimate D2E/DX2                !
 ! D65   D(3,8,15,18)           -0.1024         estimate D2E/DX2                !
 ! D66   D(3,8,15,25)         -142.3226         estimate D2E/DX2                !
 ! D67   D(16,8,15,18)         142.353          estimate D2E/DX2                !
 ! D68   D(16,8,15,25)           0.1327         estimate D2E/DX2                !
 ! D69   D(3,8,16,13)           -0.4515         estimate D2E/DX2                !
 ! D70   D(3,8,16,26)          142.0312         estimate D2E/DX2                !
 ! D71   D(15,8,16,13)        -142.6044         estimate D2E/DX2                !
 ! D72   D(15,8,16,26)          -0.1217         estimate D2E/DX2                !
 ! D73   D(4,9,17,20)           -0.1097         estimate D2E/DX2                !
 ! D74   D(4,9,17,27)         -143.2075         estimate D2E/DX2                !
 ! D75   D(18,9,17,20)         143.0636         estimate D2E/DX2                !
 ! D76   D(18,9,17,27)          -0.0342         estimate D2E/DX2                !
 ! D77   D(4,9,18,15)            0.2925         estimate D2E/DX2                !
 ! D78   D(4,9,18,28)          143.7889         estimate D2E/DX2                !
 ! D79   D(17,9,18,15)        -143.255          estimate D2E/DX2                !
 ! D80   D(17,9,18,28)           0.2414         estimate D2E/DX2                !
 ! D81   D(5,10,19,11)           7.302          estimate D2E/DX2                !
 ! D82   D(5,10,19,29)        -139.6951         estimate D2E/DX2                !
 ! D83   D(20,10,19,11)        135.2382         estimate D2E/DX2                !
 ! D84   D(20,10,19,29)        -11.7589         estimate D2E/DX2                !
 ! D85   D(61,10,19,11)        -60.0644         estimate D2E/DX2                !
 ! D86   D(61,10,19,29)        152.9385         estimate D2E/DX2                !
 ! D87   D(5,10,20,17)          -7.3314         estimate D2E/DX2                !
 ! D88   D(5,10,20,30)         139.5335         estimate D2E/DX2                !
 ! D89   D(19,10,20,17)       -135.1378         estimate D2E/DX2                !
 ! D90   D(19,10,20,30)         11.7271         estimate D2E/DX2                !
 ! D91   D(61,10,20,17)         60.2644         estimate D2E/DX2                !
 ! D92   D(61,10,20,30)       -152.8707         estimate D2E/DX2                !
 ! D93   D(19,10,61,62)        -11.103          estimate D2E/DX2                !
 ! D94   D(19,10,61,68)       -151.1866         estimate D2E/DX2                !
 ! D95   D(20,10,61,62)        150.2476         estimate D2E/DX2                !
 ! D96   D(20,10,61,68)         10.164          estimate D2E/DX2                !
 ! D97   D(6,11,19,10)          -7.9112         estimate D2E/DX2                !
 ! D98   D(6,11,19,29)         135.7888         estimate D2E/DX2                !
 ! D99   D(21,11,19,10)       -146.2967         estimate D2E/DX2                !
 ! D100  D(21,11,19,29)         -2.5967         estimate D2E/DX2                !
 ! D101  D(6,11,21,22)           0.2537         estimate D2E/DX2                !
 ! D102  D(6,11,21,31)        -143.2717         estimate D2E/DX2                !
 ! D103  D(19,11,21,22)        143.5366         estimate D2E/DX2                !
 ! D104  D(19,11,21,31)          0.0112         estimate D2E/DX2                !
 ! D105  D(6,12,14,7)           -1.3578         estimate D2E/DX2                !
 ! D106  D(6,12,14,24)        -138.8592         estimate D2E/DX2                !
 ! D107  D(22,12,14,7)         138.1178         estimate D2E/DX2                !
 ! D108  D(22,12,14,24)          0.6164         estimate D2E/DX2                !
 ! D109  D(6,12,22,21)           0.3235         estimate D2E/DX2                !
 ! D110  D(6,12,22,32)         143.8483         estimate D2E/DX2                !
 ! D111  D(14,12,22,21)       -143.6205         estimate D2E/DX2                !
 ! D112  D(14,12,22,32)         -0.0957         estimate D2E/DX2                !
 ! D113  D(7,13,16,8)            0.0139         estimate D2E/DX2                !
 ! D114  D(7,13,16,26)        -137.894          estimate D2E/DX2                !
 ! D115  D(23,13,16,8)         137.8705         estimate D2E/DX2                !
 ! D116  D(23,13,16,26)         -0.0375         estimate D2E/DX2                !
 ! D117  D(7,13,23,24)          -0.0682         estimate D2E/DX2                !
 ! D118  D(7,13,23,33)         142.2878         estimate D2E/DX2                !
 ! D119  D(16,13,23,24)       -142.4496         estimate D2E/DX2                !
 ! D120  D(16,13,23,33)         -0.0936         estimate D2E/DX2                !
 ! D121  D(7,14,24,23)           0.1165         estimate D2E/DX2                !
 ! D122  D(7,14,24,34)        -142.2785         estimate D2E/DX2                !
 ! D123  D(12,14,24,23)        141.8782         estimate D2E/DX2                !
 ! D124  D(12,14,24,34)         -0.5168         estimate D2E/DX2                !
 ! D125  D(8,15,18,9)            1.3098         estimate D2E/DX2                !
 ! D126  D(8,15,18,28)        -138.188          estimate D2E/DX2                !
 ! D127  D(25,15,18,9)         138.9203         estimate D2E/DX2                !
 ! D128  D(25,15,18,28)         -0.5776         estimate D2E/DX2                !
 ! D129  D(8,15,25,26)          -0.0929         estimate D2E/DX2                !
 ! D130  D(8,15,25,35)         142.3195         estimate D2E/DX2                !
 ! D131  D(18,15,25,26)       -141.9456         estimate D2E/DX2                !
 ! D132  D(18,15,25,35)          0.4669         estimate D2E/DX2                !
 ! D133  D(8,16,26,25)           0.0637         estimate D2E/DX2                !
 ! D134  D(8,16,26,36)        -142.2983         estimate D2E/DX2                !
 ! D135  D(13,16,26,25)        142.4858         estimate D2E/DX2                !
 ! D136  D(13,16,26,36)          0.1238         estimate D2E/DX2                !
 ! D137  D(9,17,20,10)           7.7122         estimate D2E/DX2                !
 ! D138  D(9,17,20,30)        -135.8744         estimate D2E/DX2                !
 ! D139  D(27,17,20,10)        146.3349         estimate D2E/DX2                !
 ! D140  D(27,17,20,30)          2.7483         estimate D2E/DX2                !
 ! D141  D(9,17,27,28)          -0.1859         estimate D2E/DX2                !
 ! D142  D(9,17,27,37)         143.3069         estimate D2E/DX2                !
 ! D143  D(20,17,27,28)       -143.6193         estimate D2E/DX2                !
 ! D144  D(20,17,27,37)         -0.1264         estimate D2E/DX2                !
 ! D145  D(9,18,28,27)          -0.3578         estimate D2E/DX2                !
 ! D146  D(9,18,28,38)        -143.7878         estimate D2E/DX2                !
 ! D147  D(15,18,28,27)        143.5633         estimate D2E/DX2                !
 ! D148  D(15,18,28,38)          0.1333         estimate D2E/DX2                !
 ! D149  D(10,19,29,30)          7.5863         estimate D2E/DX2                !
 ! D150  D(10,19,29,39)        152.4995         estimate D2E/DX2                !
 ! D151  D(11,19,29,30)       -141.0013         estimate D2E/DX2                !
 ! D152  D(11,19,29,39)          3.9119         estimate D2E/DX2                !
 ! D153  D(10,20,30,29)         -7.5042         estimate D2E/DX2                !
 ! D154  D(10,20,30,40)       -152.5032         estimate D2E/DX2                !
 ! D155  D(17,20,30,29)        140.9743         estimate D2E/DX2                !
 ! D156  D(17,20,30,40)         -4.0246         estimate D2E/DX2                !
 ! D157  D(11,21,22,12)         -0.3579         estimate D2E/DX2                !
 ! D158  D(11,21,22,32)       -143.8661         estimate D2E/DX2                !
 ! D159  D(31,21,22,12)        143.6364         estimate D2E/DX2                !
 ! D160  D(31,21,22,32)          0.1282         estimate D2E/DX2                !
 ! D161  D(11,21,31,39)          1.3756         estimate D2E/DX2                !
 ! D162  D(11,21,31,41)        138.8616         estimate D2E/DX2                !
 ! D163  D(22,21,31,39)       -138.1674         estimate D2E/DX2                !
 ! D164  D(22,21,31,41)         -0.6814         estimate D2E/DX2                !
 ! D165  D(12,22,32,34)         -0.5235         estimate D2E/DX2                !
 ! D166  D(12,22,32,42)       -138.6307         estimate D2E/DX2                !
 ! D167  D(21,22,32,34)        138.6042         estimate D2E/DX2                !
 ! D168  D(21,22,32,42)          0.4971         estimate D2E/DX2                !
 ! D169  D(13,23,24,14)         -0.0294         estimate D2E/DX2                !
 ! D170  D(13,23,24,34)        142.4048         estimate D2E/DX2                !
 ! D171  D(33,23,24,14)       -142.306          estimate D2E/DX2                !
 ! D172  D(33,23,24,34)          0.1281         estimate D2E/DX2                !
 ! D173  D(13,23,33,36)          0.1379         estimate D2E/DX2                !
 ! D174  D(13,23,33,43)       -138.0588         estimate D2E/DX2                !
 ! D175  D(24,23,33,36)        137.9575         estimate D2E/DX2                !
 ! D176  D(24,23,33,43)         -0.2392         estimate D2E/DX2                !
 ! D177  D(14,24,34,32)         -0.1044         estimate D2E/DX2                !
 ! D178  D(14,24,34,44)        138.0816         estimate D2E/DX2                !
 ! D179  D(23,24,34,32)       -138.0835         estimate D2E/DX2                !
 ! D180  D(23,24,34,44)          0.1024         estimate D2E/DX2                !
 ! D181  D(15,25,26,16)          0.0177         estimate D2E/DX2                !
 ! D182  D(15,25,26,36)        142.3191         estimate D2E/DX2                !
 ! D183  D(35,25,26,16)       -142.4208         estimate D2E/DX2                !
 ! D184  D(35,25,26,36)         -0.1194         estimate D2E/DX2                !
 ! D185  D(15,25,35,38)          0.0902         estimate D2E/DX2                !
 ! D186  D(15,25,35,45)       -138.077          estimate D2E/DX2                !
 ! D187  D(26,25,35,38)        138.0782         estimate D2E/DX2                !
 ! D188  D(26,25,35,45)         -0.089          estimate D2E/DX2                !
 ! D189  D(16,26,36,33)         -0.0794         estimate D2E/DX2                !
 ! D190  D(16,26,36,46)        138.0102         estimate D2E/DX2                !
 ! D191  D(25,26,36,33)       -137.9176         estimate D2E/DX2                !
 ! D192  D(25,26,36,46)          0.172          estimate D2E/DX2                !
 ! D193  D(17,27,28,18)          0.3361         estimate D2E/DX2                !
 ! D194  D(17,27,28,38)        143.7744         estimate D2E/DX2                !
 ! D195  D(37,27,28,18)       -143.5667         estimate D2E/DX2                !
 ! D196  D(37,27,28,38)         -0.1284         estimate D2E/DX2                !
 ! D197  D(17,27,37,40)         -1.341          estimate D2E/DX2                !
 ! D198  D(17,27,37,47)       -138.8635         estimate D2E/DX2                !
 ! D199  D(28,27,37,40)        138.1326         estimate D2E/DX2                !
 ! D200  D(28,27,37,47)          0.6101         estimate D2E/DX2                !
 ! D201  D(18,28,38,35)          0.4216         estimate D2E/DX2                !
 ! D202  D(18,28,38,48)        138.6239         estimate D2E/DX2                !
 ! D203  D(27,28,38,35)       -138.6289         estimate D2E/DX2                !
 ! D204  D(27,28,38,48)         -0.4266         estimate D2E/DX2                !
 ! D205  D(19,29,30,20)         -0.0545         estimate D2E/DX2                !
 ! D206  D(19,29,30,40)        145.4421         estimate D2E/DX2                !
 ! D207  D(39,29,30,20)       -145.5124         estimate D2E/DX2                !
 ! D208  D(39,29,30,40)         -0.0158         estimate D2E/DX2                !
 ! D209  D(19,29,39,31)         -2.5289         estimate D2E/DX2                !
 ! D210  D(19,29,39,49)       -140.5049         estimate D2E/DX2                !
 ! D211  D(30,29,39,31)        138.483          estimate D2E/DX2                !
 ! D212  D(30,29,39,49)          0.5071         estimate D2E/DX2                !
 ! D213  D(20,30,40,37)          2.5666         estimate D2E/DX2                !
 ! D214  D(20,30,40,50)        140.6271         estimate D2E/DX2                !
 ! D215  D(29,30,40,37)       -138.4994         estimate D2E/DX2                !
 ! D216  D(29,30,40,50)         -0.439          estimate D2E/DX2                !
 ! D217  D(21,31,39,29)         -0.1091         estimate D2E/DX2                !
 ! D218  D(21,31,39,49)        142.2562         estimate D2E/DX2                !
 ! D219  D(41,31,39,29)       -142.2256         estimate D2E/DX2                !
 ! D220  D(41,31,39,49)          0.1397         estimate D2E/DX2                !
 ! D221  D(21,31,41,42)          0.6108         estimate D2E/DX2                !
 ! D222  D(21,31,41,51)       -141.8597         estimate D2E/DX2                !
 ! D223  D(39,31,41,42)        142.3522         estimate D2E/DX2                !
 ! D224  D(39,31,41,51)         -0.1183         estimate D2E/DX2                !
 ! D225  D(22,32,34,24)          0.6237         estimate D2E/DX2                !
 ! D226  D(22,32,34,44)       -142.0343         estimate D2E/DX2                !
 ! D227  D(42,32,34,24)        143.1588         estimate D2E/DX2                !
 ! D228  D(42,32,34,44)          0.5008         estimate D2E/DX2                !
 ! D229  D(22,32,42,41)         -0.5686         estimate D2E/DX2                !
 ! D230  D(22,32,42,52)        142.0493         estimate D2E/DX2                !
 ! D231  D(34,32,42,41)       -143.1118         estimate D2E/DX2                !
 ! D232  D(34,32,42,52)         -0.4939         estimate D2E/DX2                !
 ! D233  D(23,33,36,26)         -0.0516         estimate D2E/DX2                !
 ! D234  D(23,33,36,46)       -142.5788         estimate D2E/DX2                !
 ! D235  D(43,33,36,26)        142.5654         estimate D2E/DX2                !
 ! D236  D(43,33,36,46)          0.0382         estimate D2E/DX2                !
 ! D237  D(23,33,43,44)          0.1203         estimate D2E/DX2                !
 ! D238  D(23,33,43,53)        142.6806         estimate D2E/DX2                !
 ! D239  D(36,33,43,44)       -142.5275         estimate D2E/DX2                !
 ! D240  D(36,33,43,53)          0.0328         estimate D2E/DX2                !
 ! D241  D(24,34,44,43)         -0.2214         estimate D2E/DX2                !
 ! D242  D(24,34,44,52)       -142.9194         estimate D2E/DX2                !
 ! D243  D(32,34,44,43)        142.3817         estimate D2E/DX2                !
 ! D244  D(32,34,44,52)         -0.3163         estimate D2E/DX2                !
 ! D245  D(25,35,38,28)         -0.533          estimate D2E/DX2                !
 ! D246  D(25,35,38,48)       -143.1577         estimate D2E/DX2                !
 ! D247  D(45,35,38,28)        142.1161         estimate D2E/DX2                !
 ! D248  D(45,35,38,48)         -0.5085         estimate D2E/DX2                !
 ! D249  D(25,35,45,46)          0.246          estimate D2E/DX2                !
 ! D250  D(25,35,45,54)        142.883          estimate D2E/DX2                !
 ! D251  D(38,35,45,46)       -142.342          estimate D2E/DX2                !
 ! D252  D(38,35,45,54)          0.295          estimate D2E/DX2                !
 ! D253  D(26,36,46,45)         -0.0151         estimate D2E/DX2                !
 ! D254  D(26,36,46,53)       -142.6324         estimate D2E/DX2                !
 ! D255  D(33,36,46,45)        142.5227         estimate D2E/DX2                !
 ! D256  D(33,36,46,53)         -0.0946         estimate D2E/DX2                !
 ! D257  D(27,37,40,30)          0.1123         estimate D2E/DX2                !
 ! D258  D(27,37,40,50)       -142.3275         estimate D2E/DX2                !
 ! D259  D(47,37,40,30)        142.2647         estimate D2E/DX2                !
 ! D260  D(47,37,40,50)         -0.1751         estimate D2E/DX2                !
 ! D261  D(27,37,47,48)         -0.5378         estimate D2E/DX2                !
 ! D262  D(27,37,47,55)        141.8849         estimate D2E/DX2                !
 ! D263  D(40,37,47,48)       -142.3162         estimate D2E/DX2                !
 ! D264  D(40,37,47,55)          0.1065         estimate D2E/DX2                !
 ! D265  D(28,38,48,47)          0.4995         estimate D2E/DX2                !
 ! D266  D(28,38,48,54)       -142.089          estimate D2E/DX2                !
 ! D267  D(35,38,48,47)        143.1162         estimate D2E/DX2                !
 ! D268  D(35,38,48,54)          0.5276         estimate D2E/DX2                !
 ! D269  D(29,39,49,50)         -0.5462         estimate D2E/DX2                !
 ! D270  D(29,39,49,51)        141.9678         estimate D2E/DX2                !
 ! D271  D(31,39,49,50)       -142.6217         estimate D2E/DX2                !
 ! D272  D(31,39,49,51)         -0.1076         estimate D2E/DX2                !
 ! D273  D(30,40,50,49)          0.4            estimate D2E/DX2                !
 ! D274  D(30,40,50,55)       -141.9958         estimate D2E/DX2                !
 ! D275  D(37,40,50,49)        142.5725         estimate D2E/DX2                !
 ! D276  D(37,40,50,55)          0.1767         estimate D2E/DX2                !
 ! D277  D(31,41,42,32)          0.0171         estimate D2E/DX2                !
 ! D278  D(31,41,42,52)       -138.1198         estimate D2E/DX2                !
 ! D279  D(51,41,42,32)        138.0848         estimate D2E/DX2                !
 ! D280  D(51,41,42,52)         -0.0522         estimate D2E/DX2                !
 ! D281  D(31,41,51,49)          0.0517         estimate D2E/DX2                !
 ! D282  D(31,41,51,56)        142.3643         estimate D2E/DX2                !
 ! D283  D(42,41,51,49)       -142.4602         estimate D2E/DX2                !
 ! D284  D(42,41,51,56)         -0.1475         estimate D2E/DX2                !
 ! D285  D(32,42,52,44)          0.2985         estimate D2E/DX2                !
 ! D286  D(32,42,52,57)       -142.3948         estimate D2E/DX2                !
 ! D287  D(41,42,52,44)        142.8561         estimate D2E/DX2                !
 ! D288  D(41,42,52,57)          0.1627         estimate D2E/DX2                !
 ! D289  D(33,43,44,34)          0.1101         estimate D2E/DX2                !
 ! D290  D(33,43,44,52)        138.4002         estimate D2E/DX2                !
 ! D291  D(53,43,44,34)       -138.0258         estimate D2E/DX2                !
 ! D292  D(53,43,44,52)          0.2644         estimate D2E/DX2                !
 ! D293  D(33,43,53,46)         -0.0913         estimate D2E/DX2                !
 ! D294  D(33,43,53,58)       -142.8389         estimate D2E/DX2                !
 ! D295  D(44,43,53,46)        142.4658         estimate D2E/DX2                !
 ! D296  D(44,43,53,58)         -0.2818         estimate D2E/DX2                !
 ! D297  D(34,44,52,42)          0.011          estimate D2E/DX2                !
 ! D298  D(34,44,52,57)        142.739          estimate D2E/DX2                !
 ! D299  D(43,44,52,42)       -142.7174         estimate D2E/DX2                !
 ! D300  D(43,44,52,57)          0.0106         estimate D2E/DX2                !
 ! D301  D(35,45,46,36)         -0.1931         estimate D2E/DX2                !
 ! D302  D(35,45,46,53)        137.9996         estimate D2E/DX2                !
 ! D303  D(54,45,46,36)       -138.4177         estimate D2E/DX2                !
 ! D304  D(54,45,46,53)         -0.225          estimate D2E/DX2                !
 ! D305  D(35,45,54,48)          0.0311         estimate D2E/DX2                !
 ! D306  D(35,45,54,59)       -142.671          estimate D2E/DX2                !
 ! D307  D(46,45,54,48)        142.6922         estimate D2E/DX2                !
 ! D308  D(46,45,54,59)         -0.0098         estimate D2E/DX2                !
 ! D309  D(36,46,53,43)          0.1149         estimate D2E/DX2                !
 ! D310  D(36,46,53,58)        142.8649         estimate D2E/DX2                !
 ! D311  D(45,46,53,43)       -142.5            estimate D2E/DX2                !
 ! D312  D(45,46,53,58)          0.25           estimate D2E/DX2                !
 ! D313  D(37,47,48,38)         -0.0193         estimate D2E/DX2                !
 ! D314  D(37,47,48,54)        138.0803         estimate D2E/DX2                !
 ! D315  D(55,47,48,38)       -138.0209         estimate D2E/DX2                !
 ! D316  D(55,47,48,54)          0.0787         estimate D2E/DX2                !
 ! D317  D(37,47,55,50)          0.0028         estimate D2E/DX2                !
 ! D318  D(37,47,55,60)       -142.3251         estimate D2E/DX2                !
 ! D319  D(48,47,55,50)        142.4411         estimate D2E/DX2                !
 ! D320  D(48,47,55,60)          0.1132         estimate D2E/DX2                !
 ! D321  D(38,48,54,45)         -0.3452         estimate D2E/DX2                !
 ! D322  D(38,48,54,59)        142.3297         estimate D2E/DX2                !
 ! D323  D(47,48,54,45)       -142.8779         estimate D2E/DX2                !
 ! D324  D(47,48,54,59)         -0.203          estimate D2E/DX2                !
 ! D325  D(39,49,50,40)          0.0913         estimate D2E/DX2                !
 ! D326  D(39,49,50,55)        137.8991         estimate D2E/DX2                !
 ! D327  D(51,49,50,40)       -137.8594         estimate D2E/DX2                !
 ! D328  D(51,49,50,55)         -0.0516         estimate D2E/DX2                !
 ! D329  D(39,49,51,41)          0.034          estimate D2E/DX2                !
 ! D330  D(39,49,51,56)       -142.3378         estimate D2E/DX2                !
 ! D331  D(50,49,51,41)        142.5174         estimate D2E/DX2                !
 ! D332  D(50,49,51,56)          0.1456         estimate D2E/DX2                !
 ! D333  D(40,50,55,47)         -0.11           estimate D2E/DX2                !
 ! D334  D(40,50,55,60)        142.2616         estimate D2E/DX2                !
 ! D335  D(49,50,55,47)       -142.4389         estimate D2E/DX2                !
 ! D336  D(49,50,55,60)         -0.0673         estimate D2E/DX2                !
 ! D337  D(41,51,56,57)          0.2353         estimate D2E/DX2                !
 ! D338  D(41,51,56,60)       -137.9588         estimate D2E/DX2                !
 ! D339  D(49,51,56,57)        138.0745         estimate D2E/DX2                !
 ! D340  D(49,51,56,60)         -0.1196         estimate D2E/DX2                !
 ! D341  D(42,52,57,56)         -0.0748         estimate D2E/DX2                !
 ! D342  D(42,52,57,58)        138.0263         estimate D2E/DX2                !
 ! D343  D(44,52,57,56)       -138.3698         estimate D2E/DX2                !
 ! D344  D(44,52,57,58)         -0.2686         estimate D2E/DX2                !
 ! D345  D(43,53,58,57)          0.0236         estimate D2E/DX2                !
 ! D346  D(43,53,58,59)        138.2698         estimate D2E/DX2                !
 ! D347  D(46,53,58,57)       -138.2854         estimate D2E/DX2                !
 ! D348  D(46,53,58,59)         -0.0392         estimate D2E/DX2                !
 ! D349  D(45,54,59,58)          0.2205         estimate D2E/DX2                !
 ! D350  D(45,54,59,60)        138.4122         estimate D2E/DX2                !
 ! D351  D(48,54,59,58)       -138.057          estimate D2E/DX2                !
 ! D352  D(48,54,59,60)          0.1348         estimate D2E/DX2                !
 ! D353  D(47,55,60,56)        137.9521         estimate D2E/DX2                !
 ! D354  D(47,55,60,59)         -0.1813         estimate D2E/DX2                !
 ! D355  D(50,55,60,56)          0.0931         estimate D2E/DX2                !
 ! D356  D(50,55,60,59)       -138.0403         estimate D2E/DX2                !
 ! D357  D(51,56,57,52)         -0.1248         estimate D2E/DX2                !
 ! D358  D(51,56,57,58)       -142.6622         estimate D2E/DX2                !
 ! D359  D(60,56,57,52)        142.5057         estimate D2E/DX2                !
 ! D360  D(60,56,57,58)         -0.0317         estimate D2E/DX2                !
 ! D361  D(51,56,60,55)          0.0009         estimate D2E/DX2                !
 ! D362  D(51,56,60,59)        142.571          estimate D2E/DX2                !
 ! D363  D(57,56,60,55)       -142.6155         estimate D2E/DX2                !
 ! D364  D(57,56,60,59)         -0.0454         estimate D2E/DX2                !
 ! D365  D(52,57,58,53)          0.2516         estimate D2E/DX2                !
 ! D366  D(52,57,58,59)       -142.4308         estimate D2E/DX2                !
 ! D367  D(56,57,58,53)        142.779          estimate D2E/DX2                !
 ! D368  D(56,57,58,59)          0.0966         estimate D2E/DX2                !
 ! D369  D(53,58,59,54)         -0.1958         estimate D2E/DX2                !
 ! D370  D(53,58,59,60)       -142.8133         estimate D2E/DX2                !
 ! D371  D(57,58,59,54)        142.4927         estimate D2E/DX2                !
 ! D372  D(57,58,59,60)         -0.1247         estimate D2E/DX2                !
 ! D373  D(54,59,60,55)          0.0572         estimate D2E/DX2                !
 ! D374  D(54,59,60,56)       -142.5151         estimate D2E/DX2                !
 ! D375  D(58,59,60,55)        142.6774         estimate D2E/DX2                !
 ! D376  D(58,59,60,56)          0.1051         estimate D2E/DX2                !
 ! D377  D(5,61,62,63)          49.0996         estimate D2E/DX2                !
 ! D378  D(5,61,62,64)        -134.8341         estimate D2E/DX2                !
 ! D379  D(10,61,62,63)        123.1921         estimate D2E/DX2                !
 ! D380  D(10,61,62,64)        -60.7415         estimate D2E/DX2                !
 ! D381  D(68,61,62,63)        -95.2282         estimate D2E/DX2                !
 ! D382  D(68,61,62,64)         80.8381         estimate D2E/DX2                !
 ! D383  D(5,61,68,69)         -77.8866         estimate D2E/DX2                !
 ! D384  D(5,61,68,77)          44.5325         estimate D2E/DX2                !
 ! D385  D(5,61,68,78)         160.7767         estimate D2E/DX2                !
 ! D386  D(10,61,68,69)       -151.7453         estimate D2E/DX2                !
 ! D387  D(10,61,68,77)        -29.3262         estimate D2E/DX2                !
 ! D388  D(10,61,68,78)         86.9181         estimate D2E/DX2                !
 ! D389  D(62,61,68,69)         66.7235         estimate D2E/DX2                !
 ! D390  D(62,61,68,77)       -170.8574         estimate D2E/DX2                !
 ! D391  D(62,61,68,78)        -54.6132         estimate D2E/DX2                !
 ! D392  D(61,62,63,65)        176.3464         estimate D2E/DX2                !
 ! D393  D(61,62,63,72)         -4.0083         estimate D2E/DX2                !
 ! D394  D(64,62,63,65)          0.2503         estimate D2E/DX2                !
 ! D395  D(64,62,63,72)        179.8957         estimate D2E/DX2                !
 ! D396  D(61,62,64,66)       -176.4214         estimate D2E/DX2                !
 ! D397  D(61,62,64,73)          3.7563         estimate D2E/DX2                !
 ! D398  D(63,62,64,66)         -0.2404         estimate D2E/DX2                !
 ! D399  D(63,62,64,73)        179.9374         estimate D2E/DX2                !
 ! D400  D(62,63,65,67)         -0.0666         estimate D2E/DX2                !
 ! D401  D(62,63,65,74)        179.8273         estimate D2E/DX2                !
[...]
              Bcc     0.0867    11.634     4.151     3.881  0.2648  0.9634 -0.0411
 
              Baa    -0.0107    -1.430    -0.510    -0.477  0.3759 -0.4967  0.7823
    29 C(13)  Bbb    -0.0069    -0.924    -0.330    -0.308  0.7215  0.6867  0.0894
              Bcc     0.0175     2.354     0.840     0.785 -0.5816  0.5308  0.6165
 
              Baa    -0.0152    -2.038    -0.727    -0.680  0.5701  0.4898  0.6596
    30 C(13)  Bbb    -0.0124    -1.659    -0.592    -0.553 -0.4802  0.8501 -0.2163
              Bcc     0.0276     3.697     1.319     1.233 -0.6666 -0.1934  0.7198
 
              Baa    -0.0105    -1.415    -0.505    -0.472  0.9915 -0.1202 -0.0498
    31 C(13)  Bbb    -0.0093    -1.243    -0.443    -0.414  0.0169 -0.2604  0.9654
              Bcc     0.0198     2.658     0.948     0.887  0.1290  0.9580  0.2561
 
              Baa    -0.0409    -5.486    -1.958    -1.830  0.0207  0.0372  0.9991
    32 C(13)  Bbb    -0.0395    -5.299    -1.891    -1.768  0.9708 -0.2398 -0.0112
              Bcc     0.0804    10.785     3.848     3.598  0.2392  0.9701 -0.0411
 
              Baa    -0.0192    -2.577    -0.919    -0.859  0.6238  0.3877  0.6786
    33 C(13)  Bbb    -0.0166    -2.221    -0.792    -0.741 -0.4271  0.8963 -0.1195
              Bcc     0.0358     4.797     1.712     1.600 -0.6546 -0.2153  0.7247
 
              Baa    -0.0092    -1.236    -0.441    -0.412 -0.2796  0.9601  0.0058
    34 C(13)  Bbb    -0.0051    -0.683    -0.244    -0.228  0.6443  0.1831  0.7425
              Bcc     0.0143     1.919     0.685     0.640  0.7118  0.2114 -0.6698
 
              Baa    -0.0096    -1.288    -0.460    -0.430  0.5981  0.8011 -0.0234
    35 C(13)  Bbb    -0.0049    -0.662    -0.236    -0.221  0.5168 -0.3632  0.7753
              Bcc     0.0145     1.950     0.696     0.650 -0.6126  0.4757  0.6312
 
              Baa    -0.0153    -2.058    -0.734    -0.686  0.4736 -0.4502  0.7570
    36 C(13)  Bbb    -0.0120    -1.614    -0.576    -0.538  0.6788  0.7342  0.0120
              Bcc     0.0274     3.671     1.310     1.225 -0.5612  0.5081  0.6534
 
              Baa    -0.0087    -1.171    -0.418    -0.391 -0.6963  0.1717  0.6969
    37 C(13)  Bbb    -0.0068    -0.910    -0.325    -0.304  0.7162  0.1013  0.6905
              Bcc     0.0155     2.081     0.743     0.694  0.0479  0.9799 -0.1935
 
              Baa    -0.0400    -5.361    -1.913    -1.788  0.0254  0.0396  0.9989
    38 C(13)  Bbb    -0.0383    -5.146    -1.836    -1.716  0.9988 -0.0437 -0.0237
              Bcc     0.0783    10.506     3.749     3.505  0.0427  0.9983 -0.0407
 
              Baa    -0.0344    -4.622    -1.649    -1.542  0.8221 -0.3138  0.4750
    39 C(13)  Bbb    -0.0324    -4.347    -1.551    -1.450  0.4464  0.8731 -0.1959
              Bcc     0.0668     8.969     3.200     2.992 -0.3533  0.3731  0.8579
 
              Baa    -0.0401    -5.378    -1.919    -1.794  0.8657  0.1491  0.4778
    40 C(13)  Bbb    -0.0386    -5.181    -1.849    -1.728 -0.2315  0.9657  0.1180
              Bcc     0.0787    10.559     3.768     3.522 -0.4438 -0.2127  0.8705
 
              Baa    -0.0100    -1.346    -0.480    -0.449  0.9893 -0.1454 -0.0128
    41 C(13)  Bbb    -0.0088    -1.180    -0.421    -0.393 -0.0244 -0.2515  0.9675
              Bcc     0.0188     2.525     0.901     0.842  0.1440  0.9569  0.2524
 
              Baa    -0.0091    -1.222    -0.436    -0.408 -0.2646  0.9613 -0.0767
    42 C(13)  Bbb    -0.0049    -0.658    -0.235    -0.220 -0.6280 -0.1114  0.7702
              Bcc     0.0140     1.880     0.671     0.627  0.7318  0.2520  0.6332
 
              Baa    -0.0091    -1.219    -0.435    -0.407  0.7324  0.3036 -0.6094
    43 C(13)  Bbb     0.0033     0.441     0.157     0.147 -0.4333  0.8982 -0.0733
              Bcc     0.0058     0.778     0.278     0.260  0.5252  0.3178  0.7894
 
              Baa    -0.0122    -1.639    -0.585    -0.547 -0.5527  0.8240 -0.1249
    44 C(13)  Bbb    -0.0113    -1.522    -0.543    -0.508  0.3196  0.3480  0.8813
              Bcc     0.0236     3.161     1.128     1.054  0.7697  0.4472 -0.4557
 
              Baa    -0.0078    -1.040    -0.371    -0.347  0.7277  0.6858 -0.0107
    45 C(13)  Bbb    -0.0075    -1.012    -0.361    -0.338  0.3103 -0.3152  0.8969
              Bcc     0.0153     2.052     0.732     0.685 -0.6117  0.6560  0.4422
 
              Baa    -0.0094    -1.259    -0.449    -0.420  0.7021 -0.5137 -0.4932
    46 C(13)  Bbb     0.0040     0.531     0.189     0.177  0.6661  0.7185  0.1999
              Bcc     0.0054     0.728     0.260     0.243  0.2518 -0.4689  0.8466
 
              Baa    -0.0144    -1.938    -0.692    -0.647  0.9576 -0.1660 -0.2356
    47 C(13)  Bbb    -0.0122    -1.639    -0.585    -0.547  0.2839  0.4025  0.8703
              Bcc     0.0267     3.577     1.276     1.193  0.0496  0.9002 -0.4326
 
              Baa    -0.0094    -1.267    -0.452    -0.423  0.5695  0.8204 -0.0502
    48 C(13)  Bbb    -0.0046    -0.615    -0.219    -0.205 -0.5168  0.4049  0.7543
              Bcc     0.0140     1.882     0.672     0.628  0.6392 -0.4037  0.6546
 
              Baa    -0.0103    -1.382    -0.493    -0.461  0.2118  0.4073  0.8884
    49 C(13)  Bbb     0.0029     0.389     0.139     0.130 -0.0571  0.9126 -0.4048
              Bcc     0.0074     0.993     0.354     0.331  0.9757 -0.0350 -0.2165
 
              Baa    -0.0111    -1.489    -0.531    -0.497 -0.1028 -0.3465  0.9324
    50 C(13)  Bbb     0.0033     0.439     0.157     0.146 -0.1281  0.9342  0.3331
              Bcc     0.0078     1.050     0.375     0.350  0.9864  0.0852  0.1404
 
              Baa    -0.0342    -4.596    -1.640    -1.533  0.8200  0.2255 -0.5260
    51 C(13)  Bbb    -0.0325    -4.367    -1.558    -1.457 -0.3407  0.9308 -0.1321
              Bcc     0.0668     8.963     3.198     2.990  0.4598  0.2876  0.8402
 
              Baa    -0.0124    -1.658    -0.592    -0.553 -0.5509  0.8304  0.0826
    52 C(13)  Bbb    -0.0115    -1.541    -0.550    -0.514 -0.2865 -0.2812  0.9159
              Bcc     0.0238     3.199     1.141     1.067  0.7838  0.4809  0.3928
 
              Baa    -0.0024    -0.324    -0.116    -0.108  0.8587 -0.1761 -0.4813
    53 C(13)  Bbb     0.0005     0.071     0.025     0.024  0.1422  0.9841 -0.1064
              Bcc     0.0019     0.253     0.090     0.084  0.4924  0.0229  0.8701
 
              Baa    -0.0079    -1.066    -0.380    -0.356  0.7401  0.6628 -0.1138
    54 C(13)  Bbb    -0.0077    -1.034    -0.369    -0.345 -0.2396  0.4181  0.8762
              Bcc     0.0157     2.100     0.749     0.701  0.6284 -0.6212  0.4682
 
              Baa    -0.0303    -4.067    -1.451    -1.356  0.7524 -0.4529 -0.4783
    55 C(13)  Bbb    -0.0281    -3.767    -1.344    -1.257  0.5422  0.8382  0.0592
              Bcc     0.0584     7.834     2.795     2.613  0.3741 -0.3039  0.8762
 
              Baa    -0.0188    -2.519    -0.899    -0.840 -0.6019 -0.3354  0.7247
    56 C(13)  Bbb    -0.0162    -2.169    -0.774    -0.724 -0.4258  0.9026  0.0640
              Bcc     0.0349     4.688     1.673     1.564  0.6755  0.2700  0.6861
 
              Baa    -0.0090    -1.203    -0.429    -0.401  0.7479  0.3532  0.5621
    57 C(13)  Bbb     0.0032     0.436     0.155     0.145 -0.4372  0.8992  0.0167
              Bcc     0.0057     0.767     0.274     0.256 -0.4995 -0.2582  0.8269
 
              Baa    -0.0027    -0.365    -0.130    -0.122  0.8975 -0.1360  0.4196
    58 C(13)  Bbb     0.0007     0.098     0.035     0.033  0.1429  0.9896  0.0151
              Bcc     0.0020     0.267     0.095     0.089 -0.4173  0.0464  0.9076
 
              Baa    -0.0094    -1.256    -0.448    -0.419  0.7145 -0.4775  0.5113
    59 C(13)  Bbb     0.0040     0.531     0.189     0.177  0.6646  0.6917 -0.2827
              Bcc     0.0054     0.725     0.259     0.242 -0.2187  0.5418  0.8116
 
              Baa    -0.0150    -2.009    -0.717    -0.670 -0.4489  0.5107  0.7333
    60 C(13)  Bbb    -0.0117    -1.570    -0.560    -0.524  0.6779  0.7293 -0.0929
              Bcc     0.0267     3.579     1.277     1.194  0.5822 -0.4553  0.6736
 
              Baa    -0.0034    -0.455    -0.162    -0.152  0.0053  0.0369  0.9993
    61 C(13)  Bbb    -0.0001    -0.012    -0.004    -0.004  0.2610  0.9646 -0.0370
              Bcc     0.0035     0.467     0.167     0.156  0.9653 -0.2610  0.0046
 
              Baa    -0.0005    -0.065    -0.023    -0.022  0.5578  0.8013  0.2164
    62 C(13)  Bbb    -0.0003    -0.040    -0.014    -0.013 -0.0956 -0.1970  0.9757
              Bcc     0.0008     0.105     0.037     0.035  0.8245 -0.5649 -0.0333
 
              Baa    -0.0007    -0.088    -0.032    -0.029 -0.1577 -0.1236  0.9797
    63 C(13)  Bbb    -0.0002    -0.020    -0.007    -0.007 -0.1880  0.9778  0.0931
              Bcc     0.0008     0.109     0.039     0.036  0.9694  0.1695  0.1774
 
              Baa    -0.0006    -0.082    -0.029    -0.027  0.0529 -0.0497  0.9974
    64 C(13)  Bbb    -0.0002    -0.023    -0.008    -0.008 -0.2441  0.9678  0.0612
              Bcc     0.0008     0.105     0.038     0.035  0.9683  0.2467 -0.0390
 
              Baa    -0.0004    -0.058    -0.021    -0.019  0.5599  0.8273  0.0470
    65 C(13)  Bbb    -0.0001    -0.018    -0.007    -0.006 -0.0959  0.0084  0.9954
              Bcc     0.0006     0.077     0.027     0.026  0.8230 -0.5618  0.0841
 
              Baa    -0.0004    -0.057    -0.020    -0.019  0.6646  0.7248  0.1818
    66 C(13)  Bbb    -0.0001    -0.010    -0.003    -0.003 -0.0159 -0.2295  0.9732
              Bcc     0.0005     0.067     0.024     0.022  0.7471 -0.6496 -0.1410
 
              Baa    -0.0005    -0.062    -0.022    -0.021 -0.0329 -0.0691  0.9971
    67 C(13)  Bbb    -0.0002    -0.021    -0.007    -0.007 -0.0641  0.9957  0.0669
              Bcc     0.0006     0.083     0.029     0.028  0.9974  0.0617  0.0371
 
              Baa    -0.0008    -0.102    -0.036    -0.034  0.3093  0.9288 -0.2041
    68 C(13)  Bbb    -0.0007    -0.090    -0.032    -0.030  0.0304  0.2049  0.9783
              Bcc     0.0014     0.192     0.069     0.064  0.9505 -0.3088  0.0352
 
              Baa    -0.0004    -0.054    -0.019    -0.018 -0.0721  0.4393  0.8954
    69 C(13)  Bbb    -0.0003    -0.039    -0.014    -0.013  0.1180  0.8952 -0.4297
              Bcc     0.0007     0.093     0.033     0.031  0.9904 -0.0747  0.1163
 
              Baa    -0.0003    -0.034    -0.012    -0.011 -0.1375  0.9357  0.3248
    70 C(13)  Bbb    -0.0002    -0.031    -0.011    -0.010 -0.0981 -0.3392  0.9356
              Bcc     0.0005     0.065     0.023     0.022  0.9856  0.0968  0.1384
 
              Baa    -0.0002    -0.024    -0.009    -0.008 -0.1113  0.9937  0.0109
    71 C(13)  Bbb    -0.0002    -0.021    -0.008    -0.007 -0.0295 -0.0142  0.9995
              Bcc     0.0003     0.045     0.016     0.015  0.9934  0.1109  0.0309
 
              Baa    -0.0004    -0.196    -0.070    -0.065  0.3330  0.6871 -0.6457
    72 H(1)   Bbb    -0.0002    -0.126    -0.045    -0.042  0.1250  0.6466  0.7525
              Bcc     0.0006     0.322     0.115     0.108  0.9346 -0.3313  0.1294
 
              Baa    -0.0003    -0.183    -0.065    -0.061  0.3345  0.8294  0.4475
    73 H(1)   Bbb    -0.0002    -0.128    -0.046    -0.043 -0.0448 -0.4603  0.8866
              Bcc     0.0006     0.311     0.111     0.104  0.9413 -0.3167 -0.1168
 
              Baa    -0.0002    -0.117    -0.042    -0.039 -0.4744 -0.5694  0.6713
    74 H(1)   Bbb    -0.0002    -0.099    -0.035    -0.033  0.2098  0.6675  0.7145
              Bcc     0.0004     0.217     0.077     0.072  0.8549 -0.4798  0.1972
 
              Baa    -0.0002    -0.110    -0.039    -0.037  0.4502  0.5410  0.7104
    75 H(1)   Bbb    -0.0002    -0.089    -0.032    -0.030  0.2232  0.7021 -0.6762
              Bcc     0.0004     0.199     0.071     0.066  0.8646 -0.4630 -0.1954
 
              Baa    -0.0002    -0.100    -0.036    -0.033 -0.0096 -0.0189  0.9998
    76 H(1)   Bbb    -0.0001    -0.077    -0.027    -0.026  0.5573  0.8300  0.0210
              Bcc     0.0003     0.176     0.063     0.059  0.8302 -0.5574 -0.0026
 
              Baa    -0.0008    -0.405    -0.144    -0.135  0.0834  0.1747  0.9811
    77 H(1)   Bbb    -0.0005    -0.262    -0.094    -0.088  0.2847  0.9393 -0.1914
              Bcc     0.0013     0.667     0.238     0.222  0.9550 -0.2953 -0.0286
 
              Baa    -0.0003    -0.179    -0.064    -0.060  0.0935  0.9478 -0.3049
    78 H(1)   Bbb    -0.0003    -0.141    -0.050    -0.047  0.1457  0.2899  0.9459
              Bcc     0.0006     0.320     0.114     0.107  0.9849 -0.1329 -0.1110
 
              Baa    -0.0002    -0.128    -0.046    -0.043 -0.0321  0.5575  0.8295
    79 H(1)   Bbb    -0.0002    -0.117    -0.042    -0.039  0.1576  0.8224 -0.5466
              Bcc     0.0005     0.245     0.087     0.082  0.9870 -0.1132  0.1143
 
              Baa    -0.0004    -0.227    -0.081    -0.076 -0.0595  0.8690  0.4912
    80 H(1)   Bbb    -0.0002    -0.129    -0.046    -0.043 -0.1335 -0.4946  0.8588
              Bcc     0.0007     0.357     0.127     0.119  0.9893 -0.0144  0.1455
 
              Baa    -0.0002    -0.110    -0.039    -0.037 -0.2339  0.8428  0.4847
    81 H(1)   Bbb    -0.0002    -0.100    -0.036    -0.033 -0.1118 -0.5186  0.8477
              Bcc     0.0004     0.210     0.075     0.070  0.9658  0.1441  0.2155
 
              Baa    -0.0003    -0.165    -0.059    -0.055 -0.2502  0.8758  0.4127
    82 H(1)   Bbb    -0.0003    -0.149    -0.053    -0.050 -0.0204 -0.4310  0.9021
              Bcc     0.0006     0.314     0.112     0.105  0.9680  0.2173  0.1256
 
              Baa    -0.0002     0.011     0.004     0.004  0.0562 -0.0267  0.9981
    83 O(17)  Bbb    -0.0001     0.010     0.004     0.003 -0.0228  0.9993  0.0280
              Bcc     0.0003    -0.022    -0.008    -0.007  0.9982  0.0243 -0.0556
 
              Baa    -0.0001     0.011     0.004     0.004 -0.1743  0.7530  0.6345
    84 O(17)  Bbb    -0.0001     0.010     0.003     0.003  0.1473 -0.6172  0.7729
              Bcc     0.0003    -0.020    -0.007    -0.007  0.9736  0.2282 -0.0033
 
              Baa    -0.0001    -0.014    -0.005    -0.005 -0.2349  0.9244 -0.3005
    85 C(13)  Bbb    -0.0001    -0.014    -0.005    -0.005  0.0098  0.3114  0.9502
              Bcc     0.0002     0.028     0.010     0.009  0.9720  0.2202 -0.0822
 
              Baa    -0.0001    -0.047    -0.017    -0.016 -0.1703  0.9751 -0.1421
    86 H(1)   Bbb    -0.0001    -0.046    -0.016    -0.015  0.0182  0.1472  0.9889
              Bcc     0.0002     0.093     0.033     0.031  0.9852  0.1658 -0.0428
 
              Baa    -0.0001    -0.049    -0.018    -0.016 -0.3152  0.9183 -0.2397
    87 H(1)   Bbb    -0.0001    -0.048    -0.017    -0.016  0.0069  0.2548  0.9670
              Bcc     0.0002     0.098     0.035     0.033  0.9490  0.3031 -0.0866
 
              Baa    -0.0001    -0.059    -0.021    -0.020 -0.2459  0.8340 -0.4939
    88 H(1)   Bbb    -0.0001    -0.058    -0.021    -0.019  0.0452  0.5189  0.8536
              Bcc     0.0002     0.117     0.042     0.039  0.9682  0.1876 -0.1653
 

 ---------------------------------------------------------------------------------

 No NMR shielding tensors so no spin-rotation constants.
 Leave Link  601 at Wed Apr 13 08:22:52 2011, MaxMem= 1441792000 cpu:      32.8
 (Enter /apps/gaussian/g09/g09/l9999.exe)
 1\1\GINC-CX1-15-2-2\FOpt\UB3LYP\6-31G(d)\C72H14O2(1-,2)\SPF310\13-Apr-
 2011\0\\#p opt B3LYP/6-31g* geom=connectivity\\tit\\-1,2\C,-1.25345012
 84,1.4458614255,-1.4613979374\C,-0.5897451491,0.8342546509,-2.58565056
 1\C,-0.8033579486,-0.5935986833,-2.5280695394\C,-1.6039821129,-0.89289
 44783,-1.3680141293\C,-2.0608856812,0.3988459033,-0.7625593881\C,-0.64
 91791996,2.5012436616,-0.7950189563\C,0.6283974109,1.3476532806,-3.065
 143982\C,0.211998343,-1.4736947682,-2.9501741904\C,-1.315823275,-2.020
 5862784,-0.6075048132\C,-2.0395579707,0.459469559,0.8439258493\C,-0.63
 20177557,2.5593982931,0.6754021806\C,0.6243790358,3.0221298224,-1.2653
 296116\C,1.6845820579,0.4359078763,-3.4843142527\C,1.2439235629,2.4568
 63166,-2.3904021314\C,0.4919315956,-2.6529970947,-2.1774237182\C,1.479
 6536668,-0.942156955,-3.4264431241\C,-1.2959547652,-1.9627257297,0.862
 0278041\C,-0.2498813646,-2.922558338,-1.0184187508\C,-1.219457554,1.56
 0787874,1.4379884577\C,-1.5632747446,-0.777654281,1.5366534001\C,0.653
 4239197,3.1141599744,1.0700990049\C,1.4156822599,3.4139602892,-0.12103
 51764\C,2.9603057151,1.0038077156,-3.0862728177\C,2.6877256536,2.24820
 33133,-2.3990489281\C,1.9339786426,-2.8744255675,-2.1869667486\C,2.544
 1796467,-1.8200097296,-2.9669148189\C,-0.219894605,-2.8309769641,1.315
 6377736\C,0.408072886,-3.434895443,0.1624991305\C,-0.5249826216,1.0395
 055364,2.5897928194\C,-0.7365942551,-0.3886583201,2.650030779\C,1.3020
 108293,2.6393645641,2.2197665547\C,2.8146190636,3.221974038,-0.1314539
 756\C,3.9898128373,0.1571128503,-2.6347775418\C,3.4492829457,2.6224431
 478,-1.2860507875\C,2.569093562,-3.3623312985,-1.0383487575\C,3.778116
 2086,-1.2722475095,-2.574989561\C,0.5505402131,-2.4719121562,2.4311194
 019\C,1.8034328617,-3.6570035014,0.1535740667\C,0.7045585603,1.5878360
 086,2.9957977211\C,0.2893436936,-1.2342585082,3.1144146365\C,2.7456391
 367,2.4298354651,2.2078994265\C,3.4787790954,2.7147504582,1.0505424289
 \C,4.7778746768,0.5444749894,-1.4798138414\C,4.5192283404,1.7504030832
 ,-0.8207772308\C,3.8497230194,-2.8000837652,-0.6329506132\C,4.43612243
 27,-1.7769475012,-1.3823530951\C,1.9926074425,-2.692495787,2.421401091
 8\C,2.5989754958,-3.2702146753,1.2989265606\C,1.7721232298,0.710431078
 5,3.4580322509\C,1.567810311,-0.6677618636,3.515572189\C,3.0368057108,
 1.2434263635,2.9841208891\C,4.5377061431,1.8079008625,0.6285008392\C,5
 .0618560099,-0.6530022284,-0.7048606674\C,3.8680859938,-2.7427113785,0
 .8178299753\C,2.6212687929,-1.5797724531,3.0994513242\C,4.0558071795,0
 .363252865,2.5752218189\C,4.814516257,0.6575314237,1.3741206008\C,5.08
 00775163,-0.5978587999,0.6894308068\C,4.4723755836,-1.6642171682,1.469
 1503038\C,3.8441082564,-1.0661832086,2.6339508307\C,-3.3242895442,0.61
 82437529,0.0475341453\C,-3.9768412574,1.9813812381,0.0312199712\C,-4.2
 383267094,2.6577835832,-1.166930535\C,-4.4052866371,2.5606112378,1.233
 7224905\C,-4.9121121111,3.8807263346,-1.1639083847\C,-5.078372547,3.78
 16545197,1.2401081156\C,-5.3344805827,4.4466626239,0.0392320447\C,-4.3
 376600958,-0.5331908626,0.1066930417\C,-5.1555387034,-0.6964654683,-1.
 1829626617\C,-6.0440238792,-1.9453873678,-1.173581134\C,-7.206181686,-
 1.8654366422,-0.2031023306\H,-3.8990089445,2.2299167566,-2.105550967\H
 ,-4.197767107,2.051233258,2.1711168174\H,-5.100996036,4.3927508586,-2.
 104315527\H,-5.3978916145,4.2162316387,2.1841205778\H,-5.8548318627,5.
 4013676292,0.042409992\H,-3.8111768556,-1.4692498278,0.3158421655\H,-5
 .0139478184,-0.3512732884,0.9508654738\H,-5.7785447508,0.1884606077,-1
 .3496010506\H,-4.4670818128,-0.7773035369,-2.0328418955\H,-6.481383602
 9,-2.1075834543,-2.1695024434\H,-5.4638918246,-2.848589142,-0.95190663
 69\O,-7.6713339814,-0.8535788213,0.2758338625\O,-7.710370506,-3.099874
 4603,0.0523822494\C,-8.8420678903,-3.1262064682,0.9323827857\H,-9.6753
 47291,-2.5563634531,0.5106743734\H,-9.1113481606,-4.1785586464,1.03411
 46897\H,-8.5842358515,-2.7010937054,1.9064335003\\Version=EM64L-G09Rev
 A.02\State=2-A\HF=-2902.4072082\S2=0.755369\S2-1=0.\S2A=0.750027\RMSD=
 9.954e-09\RMSF=2.321e-06\Dipole=-3.1872473,-0.2586709,-0.1238225\Quadr
 upole=-7.9426301,3.0901216,4.8525085,7.892236,0.0570463,-1.043427\PG=C
 01 [X(C72H14O2)]\\@


 IMAGINATION WILL OFTEN CARRY US TO WORLDS THAT NEVER WERE.
 BUT WITHOUT IT, WE GO NOWHERE. -- CARL SAGAN (COSMOS)
 Job cpu time:  3 days 13 hours 46 minutes 31.4 seconds.
 File lengths (MBytes):  RWF=   1418 Int=      0 D2E=      0 Chk=    101 Scr=      1
 Normal termination of Gaussian 09 at Wed Apr 13 08:22:52 2011.

